Job jag_Structure1_opt_B3LYP_6-31G started on arch_jkgroup_0 at Tue Dec 12 17:03:22 2017
jobid: arch_jkgroup_0-0-5a2ffdca

  +--------------------------------------------------------------------+
  |  Jaguar version 9.7, release  16                                   |
  |                                                                    |
  |  Copyright Schrodinger, Inc.                                       |
  |  All Rights Reserved.                                              |
  |                                                                    |
  |  The following have contributed to Jaguar (listed alphabetically): |
  |  Mike Beachy, Art Bochevarov, Dale Braden, Yixiang Cao,            |
  |  Chris Cortis, Rich Friesner, Bill Goddard, Hod Greeley,           |
  |  Tom Hughes, Leif Jacobson, Jean-Marc Langlois,                    |
  |  Daniel Mainz, Rob Murphy, Dean Philipp, Tom Pollard,              |
  |  Murco Ringnalda, Mark Watson, Haoyu Yu.                           |
  |                                                                    |
  |  Use of this program should be acknowledged in publications as:    |
  |                                                                    |
  |  Jaguar, version 9.7, Schrodinger, Inc., New York, NY, 2017.       |
  |                                                                    |
  |  A. D. Bochevarov, E. Harder, T. F. Hughes, J. R. Greenwood,       |
  |  D. A. Braden, D. M. Philipp, D. Rinaldo, M. D. Halls,             |
  |  J. Zhang, R. A. Friesner, "Jaguar: A High-Performance Quantum     |
  |  Chemistry Software Program with Strengths in Life and Materials   |
  |  Sciences", Int. J. Quantum Chem., 2013, 113(18), 2110-2142.       |
  +--------------------------------------------------------------------+
  
  start of program pre
  
  Job name: jag_Structure1_opt_B3LYP_6-31G
  Executables used: /opt/schrodinger2017-3/jaguar-v9.7/bin/Linux-x86_64
  Temporary files : /tmp/reinholdt/jag_Structure1_opt_B3LYP_6-31G
  Maestro file (input):  jag_Structure1_opt_B3LYP_6-31G.mae
  Maestro file (output): jag_Structure1_opt_B3LYP_6-31G.01.mae
  
  basis set:             6-31g                           
  net molecular charge:    0
  multiplicity:            1
  
  number of basis functions....           67
  
 Input geometry:
                                   angstroms
  atom               x                 y                 z
  O1           -2.5974600000     -1.6599700000      0.3491110000 
  O2           -1.5775125562     -0.8075953836      0.8194988454 
  O3           -3.4862679230     -1.9564758920      1.4027735323 
  O4           -0.6887046331     -0.5110894915     -0.2341636869 
  O5            0.3674111598      0.3715111751      0.2529045785 
  O6            1.2562190828      0.6680170672     -0.8007579538 
  H7           -4.1807002252     -2.5368160564      1.0825094673 
  O8            2.2761665267      1.5203916836     -0.3303701084 
  H9            2.8813123572      1.7222680204     -1.0477573598 
   
  principal moments of inertia:
        amu*angstrom^2:       18.45823      639.44939      657.90762
                g*cm^2: 3.06506013E-39 1.06183057E-37 1.09248117E-37
   
  rotational constants:
               cm^(-1):      0.91328545      0.02636273      0.02562309
                   GHz:     27.37960901      0.79033464      0.76816105
   
  Molecular weight:     113.98 amu
   
  Stoichiometry: H2O7
[running at reduced cpu priority]
  Molecular Point Group: C1      
  Point Group used: C1
  
 
Number of optimization coordinates:    21
Number of independent coordinates:     21
Number of non-redundant coordinates:   21
Number of frozen coordinates:           0
Number of harmonic constraints:         0
 
Number of geometric degrees of freedom:    21
Maximum geometric degrees of freedom:      21
 " " " " " excluding dummy atoms:          21
 
  nuclear repulsion energy.......     314.283089954 hartrees
 
 Non-default options chosen:
   SCF calculation type: DFT(b3lyp)                  
   DFT=Becke_3_Parameter/HF+Slater+Becke88+VWN+LYP (B3LYP)
   Geometry will be optimized in redundant internal coordinates
  
 Temporary integer options set:
     73=  2
  
  Peak memory usage:    724 Mb
  
  end of program pre
   
 Time(pre)  user:        0.3  user+sys:        0.3  wallclock:        0.4
  
  start of program onee
  
  smallest eigenvalue of S:    2.245E-02
  number of canonical orbitals.....           67
  Peak memory usage:    883 Mb
  
  end of program onee
   
 Time(onee)  user:        0.1  user+sys:        0.1  wallclock:        0.1
  
  start of program hfig
  
  initial wavefunction generated automatically from atomic wavefunctions
 
  Irreducible     Total no   No of occupied orbitals 
  representation  orbitals   Shell_1  Shell_2    ...
  No Symm           67         29
  ------------------------
  Orbital occupation/shell    1.000
 
  Peak memory usage:    824 Mb
  
  end of program hfig
   
 Time(hfig)  user:        0.1  user+sys:        0.1  wallclock:        0.1
  
  start of program probe
  
  Peak memory usage:    823 Mb
  
  end of program probe
   
 Time(probe)  user:        0.1  user+sys:        0.1  wallclock:        0.0
  
  start of program grid
  
   grid     grid set  grid #  grid sym
  ------    --------  ------  --------
  coarse        0        0        1
  medium        2        1        1
  fine          0        0        1
  ultrafine     4        2        1
  charge        0        0        1
  gradient      4        2        1
  density       0        0        1
  DFT-fine    -11        3        1
  DFT-med.    -10        4        1
  DFT-grad    -12        5        1
  DFT-der2      0        0        1
  DFT-cphf      0        0        1
  LMP2-enrg     4        2        1
  LMP2-grad     2        1        1
  DFT-cphf2     0        0        1
  PBF-dens      0        0        1
  plotting      0        0        1
  Rel-grad    -17        0        1
  
  number of gridpoints: 
     atom        O1       O2       O3       O4       O5       O6       H7
  grid # 1      121      121      112      121      121      121      117
  grid # 2      479      479      437      477      477      479      459
  grid # 3     4304     4304     4304     4304     4304     4304     4304
  grid # 4     1192     1192     1192     1192     1192     1192     1192
  grid # 5     5226     5226     5226     5226     5226     5226     5226
   
  number of gridpoints: 
     atom        O8       H9    total
  grid # 1      112      117     1063
  grid # 2      437      459     4183
  grid # 3     4304     4304    38736
  grid # 4     1192     1192    10728
  grid # 5     5226     5226    47034
   
  Peak memory usage:    814 Mb
  
  end of program grid
   
 Time(grid)  user:        0.2  user+sys:        0.2  wallclock:        0.2
  
  start of program rwr
  
  Peak memory usage:    704 Mb
  
  end of program rwr
   
 Time(rwr)  user:        0.3  user+sys:        0.3  wallclock:        0.2
  
  start of program scf
  
 number of electrons..........         58
 number of alpha electrons....         29
 number of beta electrons.....         29
 number of orbitals, total....         67
 number of doubly-occ'd orbs..         29
 number of open shell orbs....          0
 number of occupied orbitals..         29
 number of virtual orbitals...         38
 number of hamiltonians.......          1
 number of shells.............          1
 SCF type: DFT=Becke_3_Parameter/HF+Slater+Becke88+VWN+LYP (B3LYP)
 Energy computed with NOPS off.
  
       i  u  d  i  g                   
       t  p  i  c  r                                 RMS    maximum
       e  d  i  u  i                       energy  density   DIIS  
       r  t  s  t  d       total energy    change  change    error 
  
etot    1  N  N  5  M    -526.31410455569           1.4E-02  1.6E-01
etot    2  Y  Y  6  M    -526.48661664693  1.7E-01  3.2E-02  2.2E-01
etot    3  N  Y  2  U    -524.96942536676 -1.5E+00  3.1E-02  1.8E-01
etot    4  N  Y  2  U    -526.89794798005  1.9E+00  4.0E-03  2.9E-02
etot    5  Y  Y  6  M    -526.89894410633  1.0E-03  2.3E-03  3.3E-02
etot    6  N  Y  2  U    -526.92176622150  2.3E-02  8.4E-04  1.4E-02
etot    7  Y  Y  6  M    -526.92410172394  2.3E-03  2.9E-04  4.5E-03
etot    8  Y  Y  6  M    -526.92444916036  3.5E-04  9.9E-05  9.3E-04
etot    9  N  Y  2  U    -526.92450122476  5.2E-05  4.0E-05  7.2E-04
etot   10  N  Y  2  U    -526.92450980852  8.6E-06  1.3E-05  1.5E-04
etot   11  N  Y  2  U    -526.92451016525  3.6E-07  6.0E-06  8.0E-05
etot   12  N  Y  2  U    -526.92451033222  1.7E-07  1.7E-06  1.8E-05
etot   13  N  N  2  U    -526.92451034227  1.0E-08  0.0E+00  0.0E+00
  
  
 Energy components, in hartrees:
   (A)  Nuclear repulsion............     314.28308995398
   (E)  Total one-electron terms.....   -1349.51946995044
   (I)  Total two-electron terms.....     508.31186965419
   (J)    Coulomb....................     568.83836684394
   (K)    Exchange+Correlation.......     -60.52649718975
   (L)  Electronic energy............    -841.20760029625  (E+I)
   (N)  Total energy.................    -526.92451034227  (A+L)
   (O)  Gas phase energy.............    -526.92451034227
  
 SCFE: SCF energy: DFT(b3lyp)      -526.92451034227 hartrees   iterations:  13
  
 
 HOMO energy:    -0.23695
 LUMO energy:    -0.15116
 
  Orbital energies (hartrees): 
   -19.29119   -19.28913   -19.28669   -19.28544   -19.28406   -19.23660
   -19.23639    -1.27169    -1.23559    -1.16728    -1.08465    -0.98587
    -0.86972    -0.77943    -0.60627    -0.59116    -0.58352    -0.54182
    -0.52050    -0.48745    -0.47697    -0.43141    -0.41672    -0.37371
    -0.36764    -0.35932    -0.30925    -0.26018    -0.23695    -0.15116
    -0.04198     0.00859     0.01897     0.03324     0.03777     0.07362
     0.07572     0.69475     0.71532
 
  Peak memory usage:    998 Mb
  
  end of program scf
   
 Time(scf)  user:        1.6  user+sys:        1.6  wallclock:        1.7
  
  start of program der1a
  
  Peak memory usage:    873 Mb
  
  end of program der1a
   
 Time(der1a)  user:        0.1  user+sys:        0.1  wallclock:        0.2
  
  start of program rwr
  
  Peak memory usage:    704 Mb
  
  end of program rwr
   
 Time(rwr)  user:        0.2  user+sys:        0.2  wallclock:        0.2
  
  start of program der1b
  
   
  forces (hartrees/bohr) : total     
   
 atom  label           x              y              z
 ---- --------   -------------  -------------  -------------
    1 O1         -1.756757E-02  -5.332934E-02  -1.348530E-01
    2 O2          1.669292E-02   5.833227E-02   1.532503E-01
    3 O3          3.769818E-03   3.072453E-02   9.216610E-02
    4 O4          5.152208E-03  -3.996385E-02  -1.428065E-01
    5 O5         -6.881767E-03   3.910107E-02   1.439194E-01
    6 O6         -8.291170E-03  -4.771525E-02  -1.375846E-01
    7 H7         -5.739140E-03  -1.341963E-02  -3.092736E-02
    8 O8          1.261845E-02   3.620880E-02   8.998499E-02
    9 H9          2.501570E-04  -9.821474E-03  -3.277948E-02
 -------------   -------------  -------------  -------------
     total        3.908603E-06   1.171329E-04   3.698325E-04
   
  Peak memory usage:    985 Mb
  
  end of program der1b
   
 Time(der1b)  user:        0.5  user+sys:        0.5  wallclock:        0.4
  
  start of program geopt
  
 ----------------------------------------------------------------------------
  Geometry optimization step  1
  Total energy:      -526.92451034227 hartrees
 ----------------------------------------------------------------------------
  
  
  Level shifts adjusted to satisfy step-size constraints
   Step size:    0.3009552
   Cos(theta):   0.9965201
   Final level shift:  -4.8677067E-01
  
  gradient maximum:        8.0852E-02 .  (  4.5000E-04 )
  gradient rms:            4.9637E-02 .  (  3.0000E-04 )
  displacement maximum:    1.0974E-01 .  (  1.8000E-03 )
  displacement rms:        6.5674E-02 .  (  1.2000E-03 )
  
  predicted energy change:  -5.6154E-02
  step size:     0.30096
  trust radius:  0.30000
  
  molecular structure not yet converged...
  
  center of mass moved by:
     x:     1.6575E-04     y:    -4.7512E-04     z:    -1.9317E-03
  
  new geometry: 
                                   angstroms
  atom               x                 y                 z
  O1           -2.5676248934     -1.6551633915      0.2968098285 
  O2           -1.5541872359     -0.7817555810      0.8511084284 
  O3           -3.4331528944     -1.9160945813      1.4141729460 
  O4           -0.6862806588     -0.5219439654     -0.2753428426 
  O5            0.3485580329      0.3707613111      0.2934605859 
  O6            1.2171417263      0.6307059681     -0.8340967033 
  H7           -4.1270555788     -2.5031287683      1.0706955393 
  O8            2.2254506570      1.4981272024     -0.2877347233 
  H9            2.8268253415      1.6909961992     -1.0261244110 
   
  nuclear repulsion energy.......     313.750346793 hartrees
  -------------------------------------------------
 /  end of geometry optimization iteration   1   /
 -------------------------------------------------
   
  Peak memory usage:    686 Mb
  
  end of program geopt
   
 Time(geopt)  user:        0.1  user+sys:        0.1  wallclock:        0.1
  
  start of program onee
  
  smallest eigenvalue of S:    2.285E-02
  number of canonical orbitals.....           67
  Peak memory usage:    883 Mb
  
  end of program onee
   
 Time(onee)  user:        0.1  user+sys:        0.1  wallclock:        0.1
  
  start of program probe
  
  Peak memory usage:    823 Mb
  
  end of program probe
   
 Time(probe)  user:        0.1  user+sys:        0.1  wallclock:        0.0
  
  start of program grid
  
   grid     grid set  grid #  grid sym
  ------    --------  ------  --------
  coarse        0        0        1
  medium        2        1        1
  fine          0        0        1
  ultrafine     4        2        1
  charge        0        0        1
  gradient      4        2        1
  density       0        0        1
  DFT-fine    -11        3        1
  DFT-med.    -10        4        1
  DFT-grad    -12        5        1
  DFT-der2      0        0        1
  DFT-cphf      0        0        1
  LMP2-enrg     4        2        1
  LMP2-grad     2        1        1
  DFT-cphf2     0        0        1
  PBF-dens      0        0        1
  plotting      0        0        1
  Rel-grad    -17        0        1
  
  number of gridpoints: 
     atom        O1       O2       O3       O4       O5       O6       H7
  grid # 1      121      121      114      118      118      121      117
  grid # 2      474      484      440      480      480      476      457
  grid # 3     4304     4304     4304     4304     4304     4304     4304
  grid # 4     1192     1192     1192     1192     1192     1192     1192
  grid # 5     5226     5226     5226     5226     5226     5226     5226
   
  number of gridpoints: 
     atom        O8       H9    total
  grid # 1      114      117     1061
  grid # 2      440      457     4188
  grid # 3     4304     4304    38736
  grid # 4     1192     1192    10728
  grid # 5     5226     5226    47034
   
  Peak memory usage:    814 Mb
  
  end of program grid
   
 Time(grid)  user:        0.2  user+sys:        0.2  wallclock:        0.1
  
  start of program rwr
  
  Peak memory usage:    704 Mb
  
  end of program rwr
   
 Time(rwr)  user:        0.3  user+sys:        0.3  wallclock:        0.2
  
  start of program scf
  
 Energy computed with NOPS off.
  
       i  u  d  i  g                   
       t  p  i  c  r                                 RMS    maximum
       e  d  i  u  i                       energy  density   DIIS  
       r  t  s  t  d       total energy    change  change    error 
  
etot    1  N  N  2  U    -526.97063134279           1.4E-03  1.3E-02
etot    2  Y  Y  6  M    -526.97733781142  6.7E-03  4.7E-04  2.6E-03
etot    3  N  Y  2  U    -526.97716759291 -1.7E-04  3.1E-04  5.8E-03
etot    4  Y  Y  6  M    -526.97778357774  6.2E-04  8.1E-05  1.1E-03
etot    5  Y  Y  6  M    -526.97780166718  1.8E-05  3.2E-05  4.9E-04
etot    6  N  Y  2  U    -526.97781239043  1.1E-05  1.0E-05  1.2E-04
etot    7  N  Y  2  U    -526.97781287420  4.8E-07  3.6E-06  3.3E-05
etot    8  N  N  2  U    -526.97781291882  4.5E-08  0.0E+00  0.0E+00
  
  
 Energy components, in hartrees:
   (A)  Nuclear repulsion............     313.75034679254
   (E)  Total one-electron terms.....   -1348.69323259178
   (I)  Total two-electron terms.....     507.96507288042
   (J)    Coulomb....................     568.39179322203
   (K)    Exchange+Correlation.......     -60.42672034161
   (L)  Electronic energy............    -840.72815971136  (E+I)
   (N)  Total energy.................    -526.97781291882  (A+L)
   (O)  Gas phase energy.............    -526.97781291882
  
 SCFE: SCF energy: DFT(b3lyp)      -526.97781291882 hartrees   iterations:   8
  
 
 HOMO energy:    -0.25075
 LUMO energy:    -0.12514
 
  Orbital energies (hartrees): 
   -19.29463   -19.29405   -19.29105   -19.29066   -19.29008   -19.23925
   -19.23905    -1.25578    -1.21861    -1.15297    -1.06914    -0.97006
    -0.86475    -0.79277    -0.59111    -0.58925    -0.54888    -0.54687
    -0.51200    -0.48467    -0.47875    -0.42578    -0.42523    -0.38777
    -0.38059    -0.36379    -0.30918    -0.26835    -0.25075    -0.12514
    -0.03492    -0.02731    -0.01886     0.00334     0.00901     0.06228
     0.06415     0.71059     0.72445
 
  Peak memory usage:    994 Mb
  
  end of program scf
   
 Time(scf)  user:        1.1  user+sys:        1.1  wallclock:        1.1
  
  start of program der1a
  
  Peak memory usage:    873 Mb
  
  end of program der1a
   
 Time(der1a)  user:        0.1  user+sys:        0.1  wallclock:        0.2
  
  start of program rwr
  
  Peak memory usage:    704 Mb
  
  end of program rwr
   
 Time(rwr)  user:        0.2  user+sys:        0.2  wallclock:        0.2
  
  start of program der1b
  
   
  forces (hartrees/bohr) : total     
   
 atom  label           x              y              z
 ---- --------   -------------  -------------  -------------
    1 O1         -8.213974E-03  -2.979683E-02  -7.901023E-02
    2 O2          7.545282E-03   3.156090E-02   8.631499E-02
    3 O3         -3.068172E-03   1.554433E-02   5.797718E-02
    4 O4          4.992019E-03  -2.084826E-02  -7.976006E-02
    5 O5         -4.495967E-03   2.093310E-02   7.890733E-02
    6 O6         -6.193543E-03  -2.864694E-02  -7.983932E-02
    7 H7         -2.745873E-03  -7.479798E-03  -1.827217E-02
    8 O8          1.267451E-02   2.508406E-02   5.337873E-02
    9 H9         -4.623284E-04  -6.115612E-03  -1.900434E-02
 -------------   -------------  -------------  -------------
     total        3.195360E-05   2.349396E-04   6.921192E-04
   
  Peak memory usage:    985 Mb
  
  end of program der1b
   
 Time(der1b)  user:        0.5  user+sys:        0.5  wallclock:        0.4
  
  start of program geopt
  
 ----------------------------------------------------------------------------
  Geometry optimization step  2
  Total energy:      -526.97781291882 hartrees
 ----------------------------------------------------------------------------
  
  
  Level shifts adjusted to satisfy step-size constraints
   Step size:    0.3003542
   Cos(theta):   0.9898466
   Final level shift:  -1.1931716E-01
  
  energy change:          -5.3303E-02 .  (  5.0000E-05 )
  gradient maximum:        3.9832E-02 .  (  4.5000E-04 )
  gradient rms:            2.7932E-02 .  (  3.0000E-04 )
  displacement maximum:    9.8896E-02 .  (  1.8000E-03 )
  displacement rms:        6.5543E-02 .  (  1.2000E-03 )
  
  predicted energy change:  -2.4410E-02
  step size:     0.30035
  trust radius:  0.30000
  
  molecular structure not yet converged...
  
  center of mass moved by:
     x:     8.6127E-04     y:     2.0629E-03     z:     4.7801E-03
  
  new geometry: 
                                   angstroms
  atom               x                 y                 z
  O1           -2.5667710718     -1.6662479984      0.2584395561 
  O2           -1.5475770675     -0.7666791569      0.8854729085 
  O3           -3.4312245399     -1.9065565827      1.4411183629 
  O4           -0.6811717073     -0.5299470164     -0.3132752021 
  O5            0.3447024730      0.3770173136      0.3227719687 
  O6            1.2087121402      0.6124150774     -0.8748520220 
  H7           -4.1139778100     -2.4996755791      1.0522738988 
  O8            2.2235103350      1.5052959785     -0.2597671183 
  H9            2.8093699848      1.6770579713     -1.0319998067 
   
  nuclear repulsion energy.......     309.398831360 hartrees
  -------------------------------------------------
 /  end of geometry optimization iteration   2   /
 -------------------------------------------------
   
  Peak memory usage:    686 Mb
  
  end of program geopt
   
 Time(geopt)  user:        0.1  user+sys:        0.1  wallclock:        0.1
  
  start of program onee
  
  smallest eigenvalue of S:    2.471E-02
  number of canonical orbitals.....           67
  Peak memory usage:    883 Mb
  
  end of program onee
   
 Time(onee)  user:        0.1  user+sys:        0.1  wallclock:        0.1
  
  start of program probe
  
  Peak memory usage:    823 Mb
  
  end of program probe
   
 Time(probe)  user:        0.1  user+sys:        0.1  wallclock:        0.0
  
  start of program grid
  
   grid     grid set  grid #  grid sym
  ------    --------  ------  --------
  coarse        0        0        1
  medium        2        1        1
  fine          0        0        1
  ultrafine     4        2        1
  charge        0        0        1
  gradient      4        2        1
  density       0        0        1
  DFT-fine    -11        3        1
  DFT-med.    -10        4        1
  DFT-grad    -12        5        1
  DFT-der2      0        0        1
  DFT-cphf      0        0        1
  LMP2-enrg     4        2        1
  LMP2-grad     2        1        1
  DFT-cphf2     0        0        1
  PBF-dens      0        0        1
  plotting      0        0        1
  Rel-grad    -17        0        1
  
  number of gridpoints: 
     atom        O1       O2       O3       O4       O5       O6       H7
  grid # 1      121      125      115      121      121      121      117
  grid # 2      488      489      450      487      484      488      457
  grid # 3     4304     4304     4304     4304     4304     4304     4304
  grid # 4     1192     1192     1192     1192     1192     1192     1192
  grid # 5     5226     5226     5226     5226     5226     5226     5226
   
  number of gridpoints: 
     atom        O8       H9    total
  grid # 1      115      117     1073
  grid # 2      450      457     4250
  grid # 3     4304     4304    38736
  grid # 4     1192     1192    10728
  grid # 5     5226     5226    47034
   
  Peak memory usage:    814 Mb
  
  end of program grid
   
 Time(grid)  user:        0.2  user+sys:        0.2  wallclock:        0.1
  
  start of program rwr
  
  Peak memory usage:    704 Mb
  
  end of program rwr
   
 Time(rwr)  user:        0.3  user+sys:        0.3  wallclock:        0.2
  
  start of program scf
  
 Energy computed with NOPS off.
  
       i  u  d  i  g                   
       t  p  i  c  r                                 RMS    maximum
       e  d  i  u  i                       energy  density   DIIS  
       r  t  s  t  d       total energy    change  change    error 
  
etot    1  N  N  2  U    -526.99606044319           1.3E-03  1.6E-02
etot    2  Y  Y  6  M    -527.00287747450  6.8E-03  4.3E-04  2.7E-03
etot    3  N  Y  2  U    -527.00281692658 -6.1E-05  2.8E-04  4.4E-03
etot    4  Y  Y  6  M    -527.00322017324  4.0E-04  9.6E-05  1.5E-03
etot    5  Y  Y  6  M    -527.00325901339  3.9E-05  3.8E-05  6.4E-04
etot    6  N  Y  2  U    -527.00327040017  1.1E-05  1.3E-05  1.7E-04
etot    7  N  Y  2  U    -527.00327112368  7.2E-07  5.0E-06  6.0E-05
etot    8  N  N  2  U    -527.00327125252  1.3E-07  0.0E+00  0.0E+00
  
  
 Energy components, in hartrees:
   (A)  Nuclear repulsion............     309.39883136050
   (E)  Total one-electron terms.....   -1340.31301476322
   (I)  Total two-electron terms.....     503.91091215020
   (J)    Coulomb....................     564.20004827665
   (K)    Exchange+Correlation.......     -60.28913612645
   (L)  Electronic energy............    -836.40210261302  (E+I)
   (N)  Total energy.................    -527.00327125252  (A+L)
   (O)  Gas phase energy.............    -527.00327125252
  
 SCFE: SCF energy: DFT(b3lyp)      -527.00327125252 hartrees   iterations:   8
  
 
 HOMO energy:    -0.26483
 LUMO energy:    -0.11980
 
  Orbital energies (hartrees): 
   -19.29871   -19.29844   -19.29773   -19.29506   -19.29491   -19.24356
   -19.24338    -1.22816    -1.19121    -1.13083    -1.05105    -0.95745
    -0.86558    -0.80962    -0.58175    -0.56484    -0.54830    -0.51319
    -0.49844    -0.48785    -0.46592    -0.43325    -0.41646    -0.39914
    -0.39543    -0.36007    -0.31144    -0.27826    -0.26483    -0.11980
    -0.06272    -0.06034    -0.04713    -0.03487    -0.02149     0.05410
     0.05527     0.72183     0.73184
 
  Peak memory usage:    998 Mb
  
  end of program scf
   
 Time(scf)  user:        1.1  user+sys:        1.1  wallclock:        1.1
  
  start of program der1a
  
  Peak memory usage:    873 Mb
  
  end of program der1a
   
 Time(der1a)  user:        0.1  user+sys:        0.1  wallclock:        0.2
  
  start of program rwr
  
  Peak memory usage:    704 Mb
  
  end of program rwr
   
 Time(rwr)  user:        0.2  user+sys:        0.2  wallclock:        0.2
  
  start of program der1b
  
   
  forces (hartrees/bohr) : total     
   
 atom  label           x              y              z
 ---- --------   -------------  -------------  -------------
    1 O1         -1.959234E-03  -9.775018E-03  -2.760104E-02
    2 O2          1.490684E-03   9.782049E-03   2.868671E-02
    3 O3         -3.305595E-03   4.350332E-03   2.180595E-02
    4 O4          1.028847E-03  -7.436917E-03  -2.673793E-02
    5 O5         -6.266299E-04   7.404560E-03   2.571492E-02
    6 O6         -2.354646E-03  -9.963678E-03  -2.731096E-02
    7 H7          1.439373E-04  -1.892350E-03  -6.534574E-03
    8 O8          6.764255E-03   1.034880E-02   1.852249E-02
    9 H9         -1.153560E-03  -2.666982E-03  -6.117662E-03
 -------------   -------------  -------------  -------------
     total        2.805876E-05   1.507939E-04   4.278883E-04
   
  Peak memory usage:    985 Mb
  
  end of program der1b
   
 Time(der1b)  user:        0.5  user+sys:        0.5  wallclock:        0.4
  
  start of program geopt
  
 ----------------------------------------------------------------------------
  Geometry optimization step  3
  Total energy:      -527.00327125252 hartrees
 ----------------------------------------------------------------------------
  
  energy change:          -2.5458E-02 .  (  5.0000E-05 )
  gradient maximum:        1.4628E-02 .  (  4.5000E-04 )
  gradient rms:            9.5107E-03 .  (  3.0000E-04 )
  displacement maximum:    5.9055E-02 .  (  1.8000E-03 )
  displacement rms:        3.6043E-02 .  (  1.2000E-03 )
  
  predicted energy change:  -3.6146E-03
  step size:     0.16517
  trust radius:  0.30000
  
  molecular structure not yet converged...
  
  center of mass moved by:
     x:    -3.0039E-05     y:     1.2312E-03     z:     4.0087E-03
  
  new geometry: 
                                   angstroms
  atom               x                 y                 z
  O1           -2.5772632273     -1.6779855252      0.2434549477 
  O2           -1.5517143743     -0.7645562406      0.9016392600 
  O3           -3.4443699122     -1.9087163776      1.4642249731 
  O4           -0.6816624539     -0.5369299335     -0.3350862509 
  O5            0.3478732109      0.3816087429      0.3306487649 
  O6            1.2176488739      0.6114888081     -0.8979376954 
  H7           -4.1133526208     -2.5028607559      1.0407988989 
  O8            2.2396588231      1.5207824561     -0.2457516444 
  H9            2.8088974941      1.6739850810     -1.0409012531 
   
  nuclear repulsion energy.......     305.995321360 hartrees
  -------------------------------------------------
 /  end of geometry optimization iteration   3   /
 -------------------------------------------------
   
  Peak memory usage:    686 Mb
  
  end of program geopt
   
 Time(geopt)  user:        0.1  user+sys:        0.1  wallclock:        0.1
  
  start of program onee
  
  smallest eigenvalue of S:    2.642E-02
  number of canonical orbitals.....           67
  Peak memory usage:    883 Mb
  
  end of program onee
   
 Time(onee)  user:        0.1  user+sys:        0.1  wallclock:        0.1
  
  start of program probe
  
  Peak memory usage:    823 Mb
  
  end of program probe
   
 Time(probe)  user:        0.1  user+sys:        0.1  wallclock:        0.0
  
  start of program grid
  
   grid     grid set  grid #  grid sym
  ------    --------  ------  --------
  coarse        0        0        1
  medium        2        1        1
  fine          0        0        1
  ultrafine     4        2        1
  charge        0        0        1
  gradient      4        2        1
  density       0        0        1
  DFT-fine    -11        3        1
  DFT-med.    -10        4        1
  DFT-grad    -12        5        1
  DFT-der2      0        0        1
  DFT-cphf      0        0        1
  LMP2-enrg     4        2        1
  LMP2-grad     2        1        1
  DFT-cphf2     0        0        1
  PBF-dens      0        0        1
  plotting      0        0        1
  Rel-grad    -17        0        1
  
  number of gridpoints: 
     atom        O1       O2       O3       O4       O5       O6       H7
  grid # 1      121      123      115      127      121      121      117
  grid # 2      492      494      452      493      491      492      453
  grid # 3     4304     4304     4304     4304     4304     4304     4304
  grid # 4     1192     1192     1192     1192     1192     1192     1192
  grid # 5     5226     5226     5226     5226     5226     5226     5226
   
  number of gridpoints: 
     atom        O8       H9    total
  grid # 1      115      117     1077
  grid # 2      452      453     4272
  grid # 3     4304     4304    38736
  grid # 4     1192     1192    10728
  grid # 5     5226     5226    47034
   
  Peak memory usage:    814 Mb
  
  end of program grid
   
 Time(grid)  user:        0.2  user+sys:        0.2  wallclock:        0.1
  
  start of program rwr
  
  Peak memory usage:    704 Mb
  
  end of program rwr
   
 Time(rwr)  user:        0.2  user+sys:        0.2  wallclock:        0.2
  
  start of program scf
  
 Energy computed with NOPS off.
  
       i  u  d  i  g                   
       t  p  i  c  r                                 RMS    maximum
       e  d  i  u  i                       energy  density   DIIS  
       r  t  s  t  d       total energy    change  change    error 
  
etot    1  N  N  2  U    -527.00536780287           6.9E-04  8.6E-03
etot    2  Y  Y  6  M    -527.00718616182  1.8E-03  2.1E-04  1.5E-03
etot    3  Y  Y  6  M    -527.00713453440 -5.2E-05  1.4E-04  2.3E-03
etot    4  N  Y  2  U    -527.00724784710  1.1E-04  5.1E-05  9.5E-04
etot    5  Y  Y  6  M    -527.00725885628  1.1E-05  2.0E-05  3.4E-04
etot    6  N  Y  2  U    -527.00726307977  4.2E-06  6.5E-06  1.1E-04
etot    7  N  Y  2  U    -527.00726328156  2.0E-07  2.6E-06  2.9E-05
etot    8  N  N  2  U    -527.00726331044  2.9E-08  0.0E+00  0.0E+00
  
  
 Energy components, in hartrees:
   (A)  Nuclear repulsion............     305.99532136027
   (E)  Total one-electron terms.....   -1333.67126553216
   (I)  Total two-electron terms.....     500.66868086145
   (J)    Coulomb....................     560.88073142258
   (K)    Exchange+Correlation.......     -60.21205056113
   (L)  Electronic energy............    -833.00258467072  (E+I)
   (N)  Total energy.................    -527.00726331044  (A+L)
   (O)  Gas phase energy.............    -527.00726331044
  
 SCFE: SCF energy: DFT(b3lyp)      -527.00726331044 hartrees   iterations:   8
  
 
 HOMO energy:    -0.27175
 LUMO energy:    -0.12341
 
  Orbital energies (hartrees): 
   -19.30119   -19.30100   -19.30066   -19.29743   -19.29734   -19.24635
   -19.24633    -1.21123    -1.17576    -1.11829    -1.04233    -0.95326
    -0.86773    -0.81856    -0.57392    -0.55257    -0.54429    -0.50106
    -0.49031    -0.48506    -0.45890    -0.43706    -0.41164    -0.40468
    -0.40118    -0.35857    -0.31364    -0.28364    -0.27175    -0.12341
    -0.08036    -0.07859    -0.05937    -0.05330    -0.03986     0.05111
     0.05193     0.72482     0.73366
 
  Peak memory usage:    998 Mb
  
  end of program scf
   
 Time(scf)  user:        1.0  user+sys:        1.0  wallclock:        1.1
  
  start of program der1a
  
  Peak memory usage:    873 Mb
  
  end of program der1a
   
 Time(der1a)  user:        0.1  user+sys:        0.1  wallclock:        0.2
  
  start of program rwr
  
  Peak memory usage:    704 Mb
  
  end of program rwr
   
 Time(rwr)  user:        0.2  user+sys:        0.2  wallclock:        0.2
  
  start of program der1b
  
   
  forces (hartrees/bohr) : total     
   
 atom  label           x              y              z
 ---- --------   -------------  -------------  -------------
    1 O1          8.197695E-04  -6.265558E-04  -3.934948E-03
    2 O2          1.535553E-04   1.190276E-03   3.552133E-03
    3 O3         -1.029666E-03   1.556629E-04   2.861702E-03
    4 O4          4.849806E-04  -7.800865E-04  -3.660466E-03
    5 O5         -2.104113E-04   8.250464E-04   3.185427E-03
    6 O6         -1.282353E-03  -1.926597E-03  -3.390312E-03
    7 H7         -9.601899E-05  -1.478924E-04  -2.626449E-04
    8 O8          1.263547E-03   1.569383E-03   2.265149E-03
    9 H9         -6.175175E-05  -1.728636E-04  -4.274620E-04
 -------------   -------------  -------------  -------------
     total        4.165101E-05   8.637271E-05   1.885785E-04
   
  Peak memory usage:    985 Mb
  
  end of program der1b
   
 Time(der1b)  user:        0.5  user+sys:        0.5  wallclock:        0.4
  
  start of program geopt
  
 ----------------------------------------------------------------------------
  Geometry optimization step  4
  Total energy:      -527.00726331044 hartrees
 ----------------------------------------------------------------------------
  
  energy change:          -3.9921E-03 .  (  5.0000E-05 )
  gradient maximum:        2.7055E-03 .  (  4.5000E-04 )
  gradient rms:            1.3329E-03 .  (  3.0000E-04 )
  displacement maximum:    1.3162E-02 .  (  1.8000E-03 )
  displacement rms:        5.6858E-03 .  (  1.2000E-03 )
  
  predicted energy change:  -7.8284E-05
  step size:     0.02606
  trust radius:  0.30000
  
  molecular structure not yet converged...
  
  center of mass moved by:
     x:    -5.2672E-05     y:    -8.4173E-04     z:    -3.9025E-03
  
  new geometry: 
                                   angstroms
  atom               x                 y                 z
  O1           -2.5777338256     -1.6777034588      0.2400537084 
  O2           -1.5501467441     -0.7630827637      0.8998137002 
  O3           -3.4427816772     -1.9065329651      1.4712616975 
  O4           -0.6809413754     -0.5388993055     -0.3435552136 
  O5            0.3457976528      0.3799777907      0.3304503108 
  O6            1.2174180491      0.6092507792     -0.9003393312 
  H7           -4.1141329271     -2.5016451647      1.0515498461 
  O8            2.2385419888      1.5224122722     -0.2377423457 
  H9            2.8099455662      1.6770479407     -1.0318165123 
   
  nuclear repulsion energy.......     305.650282935 hartrees
  -------------------------------------------------
 /  end of geometry optimization iteration   4   /
 -------------------------------------------------
   
  Peak memory usage:    686 Mb
  
  end of program geopt
   
 Time(geopt)  user:        0.1  user+sys:        0.1  wallclock:        0.1
  
  start of program onee
  
  smallest eigenvalue of S:    2.656E-02
  number of canonical orbitals.....           67
  Peak memory usage:    883 Mb
  
  end of program onee
   
 Time(onee)  user:        0.1  user+sys:        0.1  wallclock:        0.1
  
  start of program probe
  
  Peak memory usage:    823 Mb
  
  end of program probe
   
 Time(probe)  user:        0.1  user+sys:        0.1  wallclock:        0.0
  
  start of program grid
  
   grid     grid set  grid #  grid sym
  ------    --------  ------  --------
  coarse        0        0        1
  medium        2        1        1
  fine          0        0        1
  ultrafine     4        2        1
  charge        0        0        1
  gradient      4        2        1
  density       0        0        1
  DFT-fine    -11        3        1
  DFT-med.    -10        4        1
  DFT-grad    -12        5        1
  DFT-der2      0        0        1
  DFT-cphf      0        0        1
  LMP2-enrg     4        2        1
  LMP2-grad     2        1        1
  DFT-cphf2     0        0        1
  PBF-dens      0        0        1
  plotting      0        0        1
  Rel-grad    -17        0        1
  
  number of gridpoints: 
     atom        O1       O2       O3       O4       O5       O6       H7
  grid # 1      125      121      115      125      121      125      117
  grid # 2      492      491      452      493      491      492      453
  grid # 3     4304     4304     4304     4304     4304     4304     4304
  grid # 4     1192     1192     1192     1192     1192     1192     1192
  grid # 5     5226     5226     5226     5226     5226     5226     5226
   
  number of gridpoints: 
     atom        O8       H9    total
  grid # 1      115      117     1081
  grid # 2      452      453     4269
  grid # 3     4304     4304    38736
  grid # 4     1192     1192    10728
  grid # 5     5226     5226    47034
   
  Peak memory usage:    814 Mb
  
  end of program grid
   
 Time(grid)  user:        0.2  user+sys:        0.2  wallclock:        0.1
  
  start of program rwr
  
  Peak memory usage:    704 Mb
  
  end of program rwr
   
 Time(rwr)  user:        0.3  user+sys:        0.3  wallclock:        0.2
  
  start of program scf
  
 Energy computed with NOPS off.
  
       i  u  d  i  g                   
       t  p  i  c  r                                 RMS    maximum
       e  d  i  u  i                       energy  density   DIIS  
       r  t  s  t  d       total energy    change  change    error 
  
etot    1  N  N  2  U    -527.00727828487           1.5E-04  1.2E-03
etot    2  Y  Y  6  M    -527.00734320663  6.5E-05  2.9E-05  2.0E-04
etot    3  N  Y  2  U    -527.00734567696  2.5E-06  1.9E-05  2.4E-04
etot    4  N  Y  2  U    -527.00734690267  1.2E-06  8.6E-06  1.2E-04
etot    5  N  Y  2  U    -527.00734718296  2.8E-07  4.0E-06  7.1E-05
etot    6  N  N  2  U    -527.00734728419  1.0E-07  0.0E+00  0.0E+00
  
  
 Energy components, in hartrees:
   (A)  Nuclear repulsion............     305.65028293490
   (E)  Total one-electron terms.....   -1333.00624081042
   (I)  Total two-electron terms.....     500.34861059134
   (J)    Coulomb....................     560.54969214294
   (K)    Exchange+Correlation.......     -60.20108155161
   (L)  Electronic energy............    -832.65763021908  (E+I)
   (N)  Total energy.................    -527.00734728419  (A+L)
   (O)  Gas phase energy.............    -527.00734728419
  
 SCFE: SCF energy: DFT(b3lyp)      -527.00734728419 hartrees   iterations:   6
  
 
 HOMO energy:    -0.27277
 LUMO energy:    -0.12347
 
  Orbital energies (hartrees): 
   -19.30162   -19.30148   -19.30101   -19.29776   -19.29773   -19.24659
   -19.24657    -1.20929    -1.17316    -1.11594    -1.04098    -0.95308
    -0.86812    -0.81993    -0.57280    -0.55155    -0.54302    -0.49954
    -0.48942    -0.48382    -0.45774    -0.43745    -0.41065    -0.40524
    -0.40216    -0.35817    -0.31404    -0.28442    -0.27277    -0.12347
    -0.08295    -0.08115    -0.06227    -0.05507    -0.04283     0.05097
     0.05175     0.72548     0.73449
 
  Peak memory usage:    998 Mb
  
  end of program scf
   
 Time(scf)  user:        1.0  user+sys:        1.0  wallclock:        1.0
  
  start of program der1a
  
  Peak memory usage:    873 Mb
  
  end of program der1a
   
 Time(der1a)  user:        0.1  user+sys:        0.1  wallclock:        0.2
  
  start of program rwr
  
  Peak memory usage:    704 Mb
  
  end of program rwr
   
 Time(rwr)  user:        0.2  user+sys:        0.2  wallclock:        0.2
  
  start of program der1b
  
   
  forces (hartrees/bohr) : total     
   
 atom  label           x              y              z
 ---- --------   -------------  -------------  -------------
    1 O1         -2.723675E-04  -1.692819E-04  -3.874082E-05
    2 O2         -2.984318E-04  -1.174752E-04   2.609583E-04
    3 O3          7.430567E-05   1.008988E-04   1.992798E-04
    4 O4          2.033568E-05   1.100180E-05   3.449810E-05
    5 O5          9.308402E-05   4.961715E-05  -4.359584E-05
    6 O6          1.740914E-04   8.224435E-05  -7.991160E-05
    7 H7          2.173192E-04   9.083970E-05  -1.680030E-04
    8 O8          1.260372E-04   1.133509E-04   6.591709E-05
    9 H9         -1.121078E-04  -6.690155E-05   2.350568E-05
 -------------   -------------  -------------  -------------
     total        2.226603E-05   9.429401E-05   2.539078E-04
   
  Peak memory usage:    985 Mb
  
  end of program der1b
   
 Time(der1b)  user:        0.5  user+sys:        0.5  wallclock:        0.4
  
  start of program geopt
  
 ----------------------------------------------------------------------------
  Geometry optimization step  5
  Total energy:      -527.00734728419 hartrees
 ----------------------------------------------------------------------------
  
  energy change:          -8.3974E-05 .  (  5.0000E-05 )
  gradient maximum:        5.6430E-04 .  (  4.5000E-04 )
  gradient rms:            2.1709E-04 *  (  3.0000E-04 )
  displacement maximum:    2.1255E-02 .  (  1.8000E-03 )
  displacement rms:        5.4444E-03 .  (  1.2000E-03 )
  
  predicted energy change:  -2.8812E-06
  step size:     0.02495
  trust radius:  0.30000
  
  molecular structure not yet converged...
  
  center of mass moved by:
     x:    -1.8636E-03     y:     2.5405E-03     z:     4.5410E-04
  
  new geometry: 
                                   angstroms
  atom               x                 y                 z
  O1           -2.5865524881     -1.6666426041      0.2364259399 
  O2           -1.5560777832     -0.7572094405      0.8992136561 
  O3           -3.4380905087     -1.9147427441      1.4730719907 
  O4           -0.6812920965     -0.5385873368     -0.3421861171 
  O5            0.3473898780      0.3795479992      0.3309687218 
  O6            1.2246635771      0.6001531559     -0.8979405901 
  H7           -4.1066062167     -2.5112640926      1.0510725778 
  O8            2.2395166345      1.5237169662     -0.2394656450 
  H9            2.8118913858      1.6737537028     -1.0336473206 
   
  nuclear repulsion energy.......     305.564577357 hartrees
  -------------------------------------------------
 /  end of geometry optimization iteration   5   /
 -------------------------------------------------
   
  Peak memory usage:    686 Mb
  
  end of program geopt
   
 Time(geopt)  user:        0.1  user+sys:        0.1  wallclock:        0.1
  
  start of program onee
  
  smallest eigenvalue of S:    2.662E-02
  number of canonical orbitals.....           67
  Peak memory usage:    883 Mb
  
  end of program onee
   
 Time(onee)  user:        0.1  user+sys:        0.1  wallclock:        0.1
  
  start of program probe
  
  Peak memory usage:    823 Mb
  
  end of program probe
   
 Time(probe)  user:        0.1  user+sys:        0.1  wallclock:        0.0
  
  start of program grid
  
   grid     grid set  grid #  grid sym
  ------    --------  ------  --------
  coarse        0        0        1
  medium        2        1        1
  fine          0        0        1
  ultrafine     4        2        1
  charge        0        0        1
  gradient      4        2        1
  density       0        0        1
  DFT-fine    -11        3        1
  DFT-med.    -10        4        1
  DFT-grad    -12        5        1
  DFT-der2      0        0        1
  DFT-cphf      0        0        1
  LMP2-enrg     4        2        1
  LMP2-grad     2        1        1
  DFT-cphf2     0        0        1
  PBF-dens      0        0        1
  plotting      0        0        1
  Rel-grad    -17        0        1
  
  number of gridpoints: 
     atom        O1       O2       O3       O4       O5       O6       H7
  grid # 1      125      121      115      125      121      125      117
  grid # 2      492      491      452      493      491      492      453
  grid # 3     4304     4304     4304     4304     4304     4304     4304
  grid # 4     1192     1192     1192     1192     1192     1192     1192
  grid # 5     5226     5226     5226     5226     5226     5226     5226
   
  number of gridpoints: 
     atom        O8       H9    total
  grid # 1      115      117     1081
  grid # 2      452      453     4269
  grid # 3     4304     4304    38736
  grid # 4     1192     1192    10728
  grid # 5     5226     5226    47034
   
  Peak memory usage:    814 Mb
  
  end of program grid
   
 Time(grid)  user:        0.2  user+sys:        0.2  wallclock:        0.1
  
  start of program rwr
  
  Peak memory usage:    704 Mb
  
  end of program rwr
   
 Time(rwr)  user:        0.3  user+sys:        0.3  wallclock:        0.2
  
  start of program scf
  
 Energy computed with NOPS off.
  
       i  u  d  i  g                   
       t  p  i  c  r                                 RMS    maximum
       e  d  i  u  i                       energy  density   DIIS  
       r  t  s  t  d       total energy    change  change    error 
  
etot    1  N  N  2  U    -527.00719040125           2.6E-04  1.4E-03
etot    2  Y  Y  6  M    -527.00734767107  1.6E-04  6.4E-05  2.5E-04
etot    3  Y  Y  6  M    -527.00735322993  5.6E-06  1.8E-05  2.4E-04
etot    4  N  Y  2  U    -527.00735487441  1.6E-06  9.1E-06  1.1E-04
etot    5  N  Y  2  U    -527.00735509239  2.2E-07  3.7E-06  8.1E-05
etot    6  N  N  2  U    -527.00735520639  1.1E-07  0.0E+00  0.0E+00
  
  
 Energy components, in hartrees:
   (A)  Nuclear repulsion............     305.56457735673
   (E)  Total one-electron terms.....   -1332.83579970776
   (I)  Total two-electron terms.....     500.26386714464
   (J)    Coulomb....................     560.46421890951
   (K)    Exchange+Correlation.......     -60.20035176487
   (L)  Electronic energy............    -832.57193256312  (E+I)
   (N)  Total energy.................    -527.00735520639  (A+L)
   (O)  Gas phase energy.............    -527.00735520639
  
 SCFE: SCF energy: DFT(b3lyp)      -527.00735520639 hartrees   iterations:   6
  
 
 HOMO energy:    -0.27282
 LUMO energy:    -0.12371
 
  Orbital energies (hartrees): 
   -19.30152   -19.30150   -19.30107   -19.29784   -19.29777   -19.24664
   -19.24662    -1.20897    -1.17314    -1.11588    -1.04096    -0.95305
    -0.86816    -0.81998    -0.57271    -0.55137    -0.54294    -0.49963
    -0.48931    -0.48370    -0.45773    -0.43750    -0.41065    -0.40540
    -0.40215    -0.35819    -0.31408    -0.28450    -0.27282    -0.12371
    -0.08304    -0.08127    -0.06232    -0.05533    -0.04307     0.05095
     0.05173     0.72545     0.73430
 
  Peak memory usage:    993 Mb
  
  end of program scf
   
 Time(scf)  user:        0.9  user+sys:        0.9  wallclock:        0.9
  
  start of program der1a
  
  Peak memory usage:    873 Mb
  
  end of program der1a
   
 Time(der1a)  user:        0.1  user+sys:        0.1  wallclock:        0.2
  
  start of program rwr
  
  Peak memory usage:    704 Mb
  
  end of program rwr
   
 Time(rwr)  user:        0.2  user+sys:        0.2  wallclock:        0.2
  
  start of program der1b
  
   
  forces (hartrees/bohr) : total     
   
 atom  label           x              y              z
 ---- --------   -------------  -------------  -------------
    1 O1         -4.978265E-05   3.685301E-04   3.905864E-05
    2 O2         -1.163234E-05   9.612006E-05  -1.408926E-04
    3 O3          5.178524E-06  -2.009143E-04  -4.395086E-05
    4 O4          1.250062E-04  -4.613563E-05   1.505601E-04
    5 O5         -2.831030E-06  -3.904606E-05  -3.887697E-05
    6 O6          5.591922E-05  -9.736018E-05   1.259716E-04
    7 H7         -2.202492E-05  -6.048184E-05   1.387760E-04
    8 O8         -7.762980E-05   3.091576E-05  -2.157370E-05
    9 H9         -1.145410E-05   3.384534E-05   2.585704E-05
 -------------   -------------  -------------  -------------
     total        1.074907E-05   8.547331E-05   2.349292E-04
   
  Peak memory usage:    985 Mb
  
  end of program der1b
   
 Time(der1b)  user:        0.5  user+sys:        0.5  wallclock:        0.4
  
  start of program geopt
  
 ----------------------------------------------------------------------------
  Geometry optimization step  6
  Total energy:      -527.00735520639 hartrees
 ----------------------------------------------------------------------------
  Invalidating history between points   1  and   4

  
  Hessian eigenvalues: 
   -1.38799E-01    2.21665E-03    2.30001E-03    2.30001E-03    2.30001E-03
    2.30001E-03    6.68449E-03    1.59689E-01    1.98233E-01    2.39293E-01
    2.42033E-01    2.45422E-01    2.45773E-01    2.46925E-01    2.48658E-01
    2.49629E-01    2.50012E-01    2.50033E-01    2.50061E-01    4.81051E-01
    4.82783E-01
  
 WARNING: Hessian has wrong number of negative eigenvalues:           1
  
  
  Level shifts adjusted to satisfy step-size constraints
   Step size:    0.3009369
   Cos(theta):   0.8057450
   Final level shift:  -1.4096414E-01
  
  energy change:          -7.9222E-06 *  (  5.0000E-05 )
  gradient maximum:        6.4076E-04 .  (  4.5000E-04 )
  gradient rms:            1.7774E-04 *  (  3.0000E-04 )
  displacement maximum:    1.6272E-01 .  (  1.8000E-03 )
  displacement rms:        6.5670E-02 .  (  1.2000E-03 )
  
  predicted energy change:  -6.4818E-03
  step size:     0.30094
  trust radius:  0.30000
  
  molecular structure not yet converged...
  
  center of mass moved by:
     x:     4.0577E-03     y:     9.7839E-03     z:    -4.9701E-02
  
  new geometry: 
                                   angstroms
  atom               x                 y                 z
  O1           -2.5939334460     -1.5415719352      0.2269418880 
  O2           -1.5003216301     -0.6774720067      0.8296746974 
  O3           -3.3769623878     -1.9512271812      1.4915094041 
  O4           -0.6600243198     -0.5455707001     -0.4006138459 
  O5            0.3103931117      0.3432164482      0.3319914880 
  O6            1.2213023644      0.5076433470     -0.8503772292 
  H7           -4.1091776374     -2.5586857032      1.1924314195 
  O8            2.1504029905      1.4943513325     -0.1849557587 
  H9            2.7938392790      1.6714474306     -0.9223868614 
   
  nuclear repulsion energy.......     310.263293398 hartrees
  -------------------------------------------------
 /  end of geometry optimization iteration   6   /
 -------------------------------------------------
   
  Peak memory usage:    686 Mb
  
  end of program geopt
   
 Time(geopt)  user:        0.1  user+sys:        0.1  wallclock:        0.1
  
  start of program onee
  
  smallest eigenvalue of S:    2.363E-02
  number of canonical orbitals.....           67
  Peak memory usage:    883 Mb
  
  end of program onee
   
 Time(onee)  user:        0.1  user+sys:        0.1  wallclock:        0.1
  
  start of program probe
  
  Peak memory usage:    823 Mb
  
  end of program probe
   
 Time(probe)  user:        0.1  user+sys:        0.1  wallclock:        0.0
  
  start of program grid
  
   grid     grid set  grid #  grid sym
  ------    --------  ------  --------
  coarse        0        0        1
  medium        2        1        1
  fine          0        0        1
  ultrafine     4        2        1
  charge        0        0        1
  gradient      4        2        1
  density       0        0        1
  DFT-fine    -11        3        1
  DFT-med.    -10        4        1
  DFT-grad    -12        5        1
  DFT-der2      0        0        1
  DFT-cphf      0        0        1
  LMP2-enrg     4        2        1
  LMP2-grad     2        1        1
  DFT-cphf2     0        0        1
  PBF-dens      0        0        1
  plotting      0        0        1
  Rel-grad    -17        0        1
  
  number of gridpoints: 
     atom        O1       O2       O3       O4       O5       O6       H7
  grid # 1      120      118      115      117      122      121      117
  grid # 2      488      478      446      480      485      485      459
  grid # 3     4304     4304     4304     4304     4304     4304     4304
  grid # 4     1192     1192     1192     1192     1192     1192     1192
  grid # 5     5226     5226     5226     5226     5226     5226     5226
   
  number of gridpoints: 
     atom        O8       H9    total
  grid # 1      115      117     1062
  grid # 2      447      457     4225
  grid # 3     4304     4304    38736
  grid # 4     1192     1192    10728
  grid # 5     5226     5226    47034
   
  Peak memory usage:    814 Mb
  
  end of program grid
   
 Time(grid)  user:        0.2  user+sys:        0.2  wallclock:        0.2
  
  start of program rwr
  
  Peak memory usage:    704 Mb
  
  end of program rwr
   
 Time(rwr)  user:        0.2  user+sys:        0.2  wallclock:        0.2
  
  start of program scf
  
 Energy computed with NOPS off.
  
       i  u  d  i  g                   
       t  p  i  c  r                                 RMS    maximum
       e  d  i  u  i                       energy  density   DIIS  
       r  t  s  t  d       total energy    change  change    error 
  
etot    1  N  N  2  U    -526.98570710354           2.3E-03  1.0E-02
etot    2  Y  Y  6  M    -526.99873691463  1.3E-02  7.6E-04  3.1E-03
etot    3  N  Y  2  U    -526.99780462362 -9.3E-04  4.8E-04  7.0E-03
etot    4  Y  Y  6  M    -526.99933197548  1.5E-03  1.3E-04  1.4E-03
etot    5  Y  Y  6  M    -526.99939860786  6.7E-05  6.2E-05  8.6E-04
etot    6  Y  Y  6  M    -526.99940624146  7.6E-06  3.0E-05  5.4E-04
etot    7  N  Y  2  U    -526.99944445118  3.8E-05  8.4E-06  8.7E-05
etot    8  N  Y  2  U    -526.99944468212  2.3E-07  4.1E-06  4.9E-05
etot    9  N  N  2  U    -526.99944474574  6.4E-08  0.0E+00  0.0E+00
  
  
 Energy components, in hartrees:
   (A)  Nuclear repulsion............     310.26329339760
   (E)  Total one-electron terms.....   -1342.18437629150
   (I)  Total two-electron terms.....     504.92163814816
   (J)    Coulomb....................     565.15867035584
   (K)    Exchange+Correlation.......     -60.23703220768
   (L)  Electronic energy............    -837.26273814334  (E+I)
   (N)  Total energy.................    -526.99944474574  (A+L)
   (O)  Gas phase energy.............    -526.99944474574
  
 SCFE: SCF energy: DFT(b3lyp)      -526.99944474574 hartrees   iterations:   9
  
 
 HOMO energy:    -0.27142
 LUMO energy:    -0.11586
 
  Orbital energies (hartrees): 
   -19.30179   -19.30164   -19.29905   -19.29705   -19.29587   -19.24413
   -19.24022    -1.23042    -1.17388    -1.11489    -1.04034    -0.95467
    -0.86530    -0.81897    -0.57740    -0.56383    -0.54247    -0.50157
    -0.49315    -0.48394    -0.45696    -0.43738    -0.40985    -0.40647
    -0.39057    -0.35573    -0.31224    -0.28184    -0.27142    -0.11586
    -0.08044    -0.07527    -0.06250    -0.03958    -0.02992     0.05175
     0.05361     0.72760     0.73535
 
  Peak memory usage:    994 Mb
  
  end of program scf
   
 Time(scf)  user:        1.1  user+sys:        1.1  wallclock:        1.2
  
  start of program der1a
  
  Peak memory usage:    873 Mb
  
  end of program der1a
   
 Time(der1a)  user:        0.1  user+sys:        0.1  wallclock:        0.2
  
  start of program rwr
  
  Peak memory usage:    704 Mb
  
  end of program rwr
   
 Time(rwr)  user:        0.2  user+sys:        0.2  wallclock:        0.2
  
  start of program der1b
  
   
  forces (hartrees/bohr) : total     
   
 atom  label           x              y              z
 ---- --------   -------------  -------------  -------------
    1 O1         -2.101696E-02  -1.289269E-02  -5.397715E-03
    2 O2         -2.437517E-02  -9.727988E-03   2.038860E-02
    3 O3          1.136243E-02   8.514076E-03   1.293887E-02
    4 O4         -3.189013E-03  -5.422251E-03  -5.069432E-03
    5 O5          9.116109E-03   4.867159E-03  -2.192935E-03
    6 O6          1.299705E-02   5.089434E-03  -5.809151E-03
    7 H7          1.125230E-02   5.653989E-03  -1.563133E-02
    8 O8          9.046546E-03   7.665323E-03   2.160815E-04
    9 H9         -5.193830E-03  -3.530201E-03   7.578147E-04
 -------------   -------------  -------------  -------------
     total       -5.276969E-07   2.168537E-04   2.007974E-04
   
  Peak memory usage:    986 Mb
  
  end of program der1b
   
 Time(der1b)  user:        0.5  user+sys:        0.5  wallclock:        0.5
  
  start of program geopt
  
 ----------------------------------------------------------------------------
  Geometry optimization step  7
  Total energy:      -526.99944474574 hartrees
 ----------------------------------------------------------------------------
  ** restarting optimization from step    6 **
  
  energy change:           7.9105E-03 .  (  5.0000E-05 )
  gradient maximum:        6.4076E-04 .  (  4.5000E-04 )
  gradient rms:            1.7774E-04 *  (  3.0000E-04 )
  displacement maximum:    1.6128E-01 .  (  1.8000E-03 )
  displacement rms:        4.1366E-02 .  (  1.2000E-03 )
  
  predicted energy change:  -7.2717E-05
  step size:     0.18956
  trust radius:  0.30000
  center of mass moved by:
     x:     2.2204E-16     y:     0.0000E+00     z:    -5.5511E-17
  
  new geometry: 
                                   angstroms
  atom               x                 y                 z
  O1           -2.6485804233     -1.5609853440      0.2161677874 
  O2           -1.5928152810     -0.6862013675      0.8850822344 
  O3           -3.4054081004     -1.9603482255      1.4791947395 
  O4           -0.6889751708     -0.5226621418     -0.3414763587 
  O5            0.3439821808      0.3835210501      0.3356987893 
  O6            1.2591696950      0.5357505634     -0.8735419890 
  H7           -4.0516885970     -2.5832039004      1.0584400337 
  O8            2.2272552964      1.5283496686     -0.2459993735 
  H9            2.8119027085      1.6545059002     -1.0360530881 
   
  nuclear repulsion energy.......     305.849860923 hartrees
  -------------------------------------------------
 /  end of geometry optimization iteration   7   /
 -------------------------------------------------
   
  Peak memory usage:    686 Mb
  
  end of program geopt
   
 Time(geopt)  user:        0.1  user+sys:        0.1  wallclock:        0.1
  
  start of program onee
  
  smallest eigenvalue of S:    2.649E-02
  number of canonical orbitals.....           67
  Peak memory usage:    883 Mb
  
  end of program onee
   
 Time(onee)  user:        0.1  user+sys:        0.1  wallclock:        0.1
  
  start of program probe
  
  Peak memory usage:    823 Mb
  
  end of program probe
   
 Time(probe)  user:        0.1  user+sys:        0.1  wallclock:        0.0
  
  start of program grid
  
   grid     grid set  grid #  grid sym
  ------    --------  ------  --------
  coarse        0        0        1
  medium        2        1        1
  fine          0        0        1
  ultrafine     4        2        1
  charge        0        0        1
  gradient      4        2        1
  density       0        0        1
  DFT-fine    -11        3        1
  DFT-med.    -10        4        1
  DFT-grad    -12        5        1
  DFT-der2      0        0        1
  DFT-cphf      0        0        1
  LMP2-enrg     4        2        1
  LMP2-grad     2        1        1
  DFT-cphf2     0        0        1
  PBF-dens      0        0        1
  plotting      0        0        1
  Rel-grad    -17        0        1
  
  number of gridpoints: 
     atom        O1       O2       O3       O4       O5       O6       H7
  grid # 1      125      122      115      125      122      127      117
  grid # 2      491      492      452      493      492      492      453
  grid # 3     4304     4304     4304     4304     4304     4304     4304
  grid # 4     1192     1192     1192     1192     1192     1192     1192
  grid # 5     5226     5226     5226     5226     5226     5226     5226
   
  number of gridpoints: 
     atom        O8       H9    total
  grid # 1      115      117     1085
  grid # 2      452      453     4270
  grid # 3     4304     4304    38736
  grid # 4     1192     1192    10728
  grid # 5     5226     5226    47034
   
  Peak memory usage:    814 Mb
  
  end of program grid
   
 Time(grid)  user:        0.2  user+sys:        0.2  wallclock:        0.1
  
  start of program rwr
  
  Peak memory usage:    704 Mb
  
  end of program rwr
   
 Time(rwr)  user:        0.2  user+sys:        0.2  wallclock:        0.2
  
  start of program scf
  
 Energy computed with NOPS off.
  
       i  u  d  i  g                   
       t  p  i  c  r                                 RMS    maximum
       e  d  i  u  i                       energy  density   DIIS  
       r  t  s  t  d       total energy    change  change    error 
  
etot    1  N  N  2  U    -527.00246102935           1.2E-03  6.1E-03
etot    2  Y  Y  6  M    -527.00756647520  5.1E-03  5.4E-04  2.2E-03
etot    3  N  Y  2  U    -527.00695273683 -6.1E-04  3.5E-04  5.5E-03
etot    4  Y  Y  6  M    -527.00791669411  9.6E-04  8.6E-05  1.1E-03
etot    5  Y  Y  6  M    -527.00793750023  2.1E-05  3.7E-05  6.3E-04
etot    6  N  Y  2  U    -527.00793792035  4.2E-07  1.7E-05  2.8E-04
etot    7  N  Y  2  U    -527.00794011006  2.2E-06  4.6E-06  5.1E-05
etot    8  N  N  2  U    -527.00794017200  6.2E-08  0.0E+00  0.0E+00
  
  
 Energy components, in hartrees:
   (A)  Nuclear repulsion............     305.84986092344
   (E)  Total one-electron terms.....   -1333.40562657527
   (I)  Total two-electron terms.....     500.54782547984
   (J)    Coulomb....................     560.74809705652
   (K)    Exchange+Correlation.......     -60.20027157668
   (L)  Electronic energy............    -832.85780109544  (E+I)
   (N)  Total energy.................    -527.00794017200  (A+L)
   (O)  Gas phase energy.............    -527.00794017200
  
 SCFE: SCF energy: DFT(b3lyp)      -527.00794017200 hartrees   iterations:   8
  
 
 HOMO energy:    -0.27301
 LUMO energy:    -0.12269
 
  Orbital energies (hartrees): 
   -19.30176   -19.30140   -19.30073   -19.29839   -19.29758   -19.24664
   -19.24655    -1.20998    -1.17277    -1.11552    -1.04099    -0.95323
    -0.86812    -0.81989    -0.57257    -0.55190    -0.54268    -0.49966
    -0.49155    -0.48201    -0.45741    -0.43763    -0.41087    -0.40484
    -0.40201    -0.35798    -0.31392    -0.28509    -0.27301    -0.12269
    -0.08276    -0.08097    -0.06303    -0.05449    -0.04308     0.05079
     0.05157     0.72624     0.73501
 
  Peak memory usage:    993 Mb
  
  end of program scf
   
 Time(scf)  user:        1.1  user+sys:        1.1  wallclock:        1.1
  
  start of program der1a
  
  Peak memory usage:    873 Mb
  
  end of program der1a
   
 Time(der1a)  user:        0.1  user+sys:        0.1  wallclock:        0.2
  
  start of program rwr
  
  Peak memory usage:    704 Mb
  
  end of program rwr
   
 Time(rwr)  user:        0.2  user+sys:        0.2  wallclock:        0.2
  
  start of program der1b
  
   
  forces (hartrees/bohr) : total     
   
 atom  label           x              y              z
 ---- --------   -------------  -------------  -------------
    1 O1         -2.057740E-03   1.765022E-03   1.350991E-03
    2 O2         -2.894186E-03  -7.854659E-04  -1.366323E-04
    3 O3          1.294889E-03  -3.877270E-04  -5.454645E-04
    4 O4          1.486877E-04  -1.155791E-03   3.336187E-04
    5 O5          7.029452E-04  -4.477301E-05  -6.633367E-04
    6 O6          1.268603E-03  -1.207439E-04   9.741134E-04
    7 H7          1.250611E-03   1.198961E-04  -3.250357E-04
    8 O8          4.985870E-04   5.177163E-04  -1.132287E-03
    9 H9         -2.538154E-04   3.278057E-04   4.406893E-04
 -------------   -------------  -------------  -------------
     total       -4.141754E-05   2.359392E-04   2.966565E-04
   
  Peak memory usage:    985 Mb
  
  end of program der1b
   
 Time(der1b)  user:        0.5  user+sys:        0.5  wallclock:        0.4
  
  start of program geopt
  
 ----------------------------------------------------------------------------
  Geometry optimization step  8
  Total energy:      -527.00794017200 hartrees
 ----------------------------------------------------------------------------
  Invalidating history between points   5  and   6

  
  
  Level shifts adjusted to satisfy step-size constraints
   Step size:    0.3001880
   Cos(theta):   0.7492696
   Final level shift:  -1.6579775E-02
  
  energy change:          -5.8497E-04 .  (  5.0000E-05 )
  gradient maximum:        5.0404E-03 .  (  4.5000E-04 )
  gradient rms:            1.7288E-03 .  (  3.0000E-04 )
  displacement maximum:    2.6498E-01 .  (  1.8000E-03 )
  displacement rms:        6.5506E-02 .  (  1.2000E-03 )
  
  predicted energy change:  -1.6380E-03
  step size:     0.30019
  trust radius:  0.30000
  
  molecular structure not yet converged...
  
  center of mass moved by:
     x:    -2.6550E-02     y:     3.3152E-02     z:     1.4546E-02
  
  new geometry: 
                                   angstroms
  atom               x                 y                 z
  O1           -2.7381535493     -1.4206869091      0.2028869313 
  O2           -1.6521962276     -0.5955893339      0.8804216223 
  O3           -3.3179140637     -2.0531729453      1.4609429124 
  O4           -0.6987536981     -0.5237027392     -0.3194766929 
  O5            0.3476116131      0.3789418259      0.3463219018 
  O6            1.3254387891      0.4163374500     -0.8233681024 
  H7           -3.9318877488     -2.6909180836      1.0162615308 
  O8            2.2200923321      1.5259143699     -0.2879440803 
  H9            2.8270506564      1.5937124164     -1.0678109417 
   
  nuclear repulsion energy.......     305.984421131 hartrees
  -------------------------------------------------
 /  end of geometry optimization iteration   8   /
 -------------------------------------------------
   
  Peak memory usage:    686 Mb
  
  end of program geopt
   
 Time(geopt)  user:        0.1  user+sys:        0.1  wallclock:        0.1
  
  start of program onee
  
  smallest eigenvalue of S:    2.695E-02
  number of canonical orbitals.....           67
  Peak memory usage:    883 Mb
  
  end of program onee
   
 Time(onee)  user:        0.1  user+sys:        0.1  wallclock:        0.1
  
  start of program probe
  
  Peak memory usage:    823 Mb
  
  end of program probe
   
 Time(probe)  user:        0.1  user+sys:        0.1  wallclock:        0.0
  
  start of program grid
  
   grid     grid set  grid #  grid sym
  ------    --------  ------  --------
  coarse        0        0        1
  medium        2        1        1
  fine          0        0        1
  ultrafine     4        2        1
  charge        0        0        1
  gradient      4        2        1
  density       0        0        1
  DFT-fine    -11        3        1
  DFT-med.    -10        4        1
  DFT-grad    -12        5        1
  DFT-der2      0        0        1
  DFT-cphf      0        0        1
  LMP2-enrg     4        2        1
  LMP2-grad     2        1        1
  DFT-cphf2     0        0        1
  PBF-dens      0        0        1
  plotting      0        0        1
  Rel-grad    -17        0        1
  
  number of gridpoints: 
     atom        O1       O2       O3       O4       O5       O6       H7
  grid # 1      124      122      115      125      122      127      117
  grid # 2      486      490      452      494      494      491      453
  grid # 3     4304     4304     4304     4304     4304     4304     4304
  grid # 4     1192     1192     1192     1192     1192     1192     1192
  grid # 5     5226     5226     5226     5226     5226     5226     5226
   
  number of gridpoints: 
     atom        O8       H9    total
  grid # 1      115      117     1084
  grid # 2      452      453     4265
  grid # 3     4304     4304    38736
  grid # 4     1192     1192    10728
  grid # 5     5226     5226    47034
   
  Peak memory usage:    814 Mb
  
  end of program grid
   
 Time(grid)  user:        0.2  user+sys:        0.2  wallclock:        0.1
  
  start of program rwr
  
  Peak memory usage:    704 Mb
  
  end of program rwr
   
 Time(rwr)  user:        0.3  user+sys:        0.3  wallclock:        0.2
  
  start of program scf
  
 Energy computed with NOPS off.
  
       i  u  d  i  g                   
       t  p  i  c  r                                 RMS    maximum
       e  d  i  u  i                       energy  density   DIIS  
       r  t  s  t  d       total energy    change  change    error 
  
etot    1  N  N  2  U    -526.98593342733           3.2E-03  1.6E-02
etot    2  Y  Y  6  M    -527.00962000703  2.4E-02  8.0E-04  2.8E-03
etot    3  N  Y  2  U    -527.00985473667  2.3E-04  3.7E-04  6.5E-03
etot    4  Y  Y  6  M    -527.01059686150  7.4E-04  1.4E-04  2.0E-03
etot    5  Y  Y  6  M    -527.01065868093  6.2E-05  7.0E-05  1.3E-03
etot    6  Y  Y  6  M    -527.01067676357  1.8E-05  2.7E-05  4.0E-04
etot    7  N  Y  2  U    -527.01069792793  2.1E-05  8.6E-06  8.7E-05
etot    8  N  Y  2  U    -527.01069826210  3.3E-07  3.8E-06  2.9E-05
etot    9  N  N  2  U    -527.01069828175  2.0E-08  0.0E+00  0.0E+00
  
  
 Energy components, in hartrees:
   (A)  Nuclear repulsion............     305.98442113111
   (E)  Total one-electron terms.....   -1333.67888220647
   (I)  Total two-electron terms.....     500.68376279362
   (J)    Coulomb....................     560.88106502071
   (K)    Exchange+Correlation.......     -60.19730222709
   (L)  Electronic energy............    -832.99511941286  (E+I)
   (N)  Total energy.................    -527.01069828175  (A+L)
   (O)  Gas phase energy.............    -527.01069828175
  
 SCFE: SCF energy: DFT(b3lyp)      -527.01069828175 hartrees   iterations:   9
  
 
 HOMO energy:    -0.27363
 LUMO energy:    -0.12225
 
  Orbital energies (hartrees): 
   -19.30361   -19.30198   -19.30021   -19.29909   -19.29739   -19.24592
   -19.24556    -1.20932    -1.17353    -1.11495    -1.04088    -0.95348
    -0.86843    -0.81979    -0.57157    -0.55162    -0.54336    -0.50275
    -0.49510    -0.47667    -0.45675    -0.43731    -0.41190    -0.40356
    -0.40101    -0.35740    -0.31312    -0.28813    -0.27363    -0.12225
    -0.08134    -0.07998    -0.06343    -0.05458    -0.04425     0.05097
     0.05202     0.72746     0.73431
 
  Peak memory usage:    998 Mb
  
  end of program scf
   
 Time(scf)  user:        1.1  user+sys:        1.1  wallclock:        1.1
  
  start of program der1a
  
  Peak memory usage:    873 Mb
  
  end of program der1a
   
 Time(der1a)  user:        0.1  user+sys:        0.1  wallclock:        0.2
  
  start of program rwr
  
  Peak memory usage:    704 Mb
  
  end of program rwr
   
 Time(rwr)  user:        0.2  user+sys:        0.2  wallclock:        0.2
  
  start of program der1b
  
   
  forces (hartrees/bohr) : total     
   
 atom  label           x              y              z
 ---- --------   -------------  -------------  -------------
    1 O1          1.364130E-03   7.813713E-03   6.198669E-03
    2 O2         -6.215171E-03  -1.619146E-03  -5.239597E-03
    3 O3         -3.891636E-04  -3.235073E-03  -1.362897E-03
    4 O4          2.169083E-03  -1.219434E-03   6.496937E-05
    5 O5          2.037364E-03  -2.436637E-04  -1.482801E-03
    6 O6          1.087135E-03  -1.074425E-03   2.601885E-03
    7 H7          5.453930E-04  -1.182353E-03   5.134746E-04
    8 O8         -3.486824E-04   8.953911E-04  -8.750933E-04
    9 H9         -4.374440E-04   2.675560E-04  -1.580410E-04
 -------------   -------------  -------------  -------------
     total       -1.873561E-04   4.025650E-04   2.605687E-04
   
  Peak memory usage:    985 Mb
  
  end of program der1b
   
 Time(der1b)  user:        0.5  user+sys:        0.5  wallclock:        0.4
  
  start of program geopt
  
 ----------------------------------------------------------------------------
  Geometry optimization step  9
  Total energy:      -527.01069828175 hartrees
 ----------------------------------------------------------------------------
  Invalidating history between points   7  and   7

  
  Hessian eigenvalues: 
   -2.65497E-02    2.27519E-03    2.30002E-03    2.30005E-03    2.30009E-03
    2.30120E-03    1.47502E-01    1.59406E-01    2.07703E-01    2.09862E-01
    2.39928E-01    2.41565E-01    2.46418E-01    2.48061E-01    2.48523E-01
    2.48858E-01    2.50007E-01    2.50020E-01    2.50041E-01    4.80480E-01
    4.82420E-01
  
 WARNING: Hessian has wrong number of negative eigenvalues:           1
  
  
  Level shifts adjusted to satisfy step-size constraints
   Step size:    0.3000582
   Cos(theta):   0.8992031
   Final level shift:  -7.1323494E-02
  
  energy change:          -2.7581E-03 .  (  5.0000E-05 )
  gradient maximum:        1.0545E-02 .  (  4.5000E-04 )
  gradient rms:            3.4257E-03 .  (  3.0000E-04 )
  displacement maximum:    2.5232E-01 .  (  1.8000E-03 )
  displacement rms:        6.5478E-02 .  (  1.2000E-03 )
  
  predicted energy change:  -5.3287E-03
  step size:     0.30006
  trust radius:  0.30000
  
  molecular structure not yet converged...
  
  center of mass moved by:
     x:    -1.6763E-02     y:     3.4681E-02     z:     3.5943E-02
  
  new geometry: 
                                   angstroms
  atom               x                 y                 z
  O1           -2.8063163460     -1.2935545139      0.2287186653 
  O2           -1.7057672661     -0.5081805477      0.8858574488 
  O3           -3.2594843025     -2.1587954429      1.4052315628 
  O4           -0.6951472934     -0.5254343606     -0.2805077652 
  O5            0.3588500522      0.3916240830      0.3613946172 
  O6            1.3883848861      0.3012827252     -0.7535783622 
  H7           -3.8428678380     -2.7905561524      0.9115672105 
  O8            2.2002370459      1.5322069193     -0.3758203136 
  H9            2.8232314577      1.5170720485     -1.1458102749 
   
  nuclear repulsion energy.......     305.598525487 hartrees
  -------------------------------------------------
 /  end of geometry optimization iteration   9   /
 -------------------------------------------------
   
  Peak memory usage:    686 Mb
  
  end of program geopt
   
 Time(geopt)  user:        0.1  user+sys:        0.1  wallclock:        0.1
  
  start of program onee
  
  smallest eigenvalue of S:    2.775E-02
  number of canonical orbitals.....           67
  Peak memory usage:    883 Mb
  
  end of program onee
   
 Time(onee)  user:        0.1  user+sys:        0.1  wallclock:        0.1
  
  start of program probe
  
  Peak memory usage:    823 Mb
  
  end of program probe
   
 Time(probe)  user:        0.1  user+sys:        0.1  wallclock:        0.0
  
  start of program grid
  
   grid     grid set  grid #  grid sym
  ------    --------  ------  --------
  coarse        0        0        1
  medium        2        1        1
  fine          0        0        1
  ultrafine     4        2        1
  charge        0        0        1
  gradient      4        2        1
  density       0        0        1
  DFT-fine    -11        3        1
  DFT-med.    -10        4        1
  DFT-grad    -12        5        1
  DFT-der2      0        0        1
  DFT-cphf      0        0        1
  LMP2-enrg     4        2        1
  LMP2-grad     2        1        1
  DFT-cphf2     0        0        1
  PBF-dens      0        0        1
  plotting      0        0        1
  Rel-grad    -17        0        1
  
  number of gridpoints: 
     atom        O1       O2       O3       O4       O5       O6       H7
  grid # 1      120      119      115      124      120      124      117
  grid # 2      485      482      454      493      484      487      457
  grid # 3     4304     4304     4304     4304     4304     4304     4304
  grid # 4     1192     1192     1192     1192     1192     1192     1192
  grid # 5     5226     5226     5226     5226     5226     5226     5226
   
  number of gridpoints: 
     atom        O8       H9    total
  grid # 1      115      117     1071
  grid # 2      452      453     4247
  grid # 3     4304     4304    38736
  grid # 4     1192     1192    10728
  grid # 5     5226     5226    47034
   
  Peak memory usage:    814 Mb
  
  end of program grid
   
 Time(grid)  user:        0.2  user+sys:        0.2  wallclock:        0.1
  
  start of program rwr
  
  Peak memory usage:    704 Mb
  
  end of program rwr
   
 Time(rwr)  user:        0.2  user+sys:        0.2  wallclock:        0.2
  
  start of program scf
  
 Energy computed with NOPS off.
  
       i  u  d  i  g                   
       t  p  i  c  r                                 RMS    maximum
       e  d  i  u  i                       energy  density   DIIS  
       r  t  s  t  d       total energy    change  change    error 
  
etot    1  N  N  2  U    -526.98864027949           3.3E-03  1.3E-02
etot    2  Y  Y  6  M    -527.01453563815  2.6E-02  8.7E-04  3.2E-03
etot    3  N  Y  2  U    -527.01395680154 -5.8E-04  5.0E-04  9.1E-03
etot    4  Y  Y  6  M    -527.01562484580  1.7E-03  1.5E-04  1.8E-03
etot    5  Y  Y  6  M    -527.01567398639  4.9E-05  8.0E-05  1.4E-03
etot    6  Y  Y  6  M    -527.01569845364  2.4E-05  3.2E-05  3.7E-04
etot    7  N  Y  2  U    -527.01569314344 -5.3E-06  1.1E-05  1.0E-04
etot    8  N  Y  2  U    -527.01569375535  6.1E-07  4.0E-06  3.3E-05
etot    9  N  N  2  U    -527.01569378718  3.2E-08  0.0E+00  0.0E+00
  
  
 Energy components, in hartrees:
   (A)  Nuclear repulsion............     305.59852548656
   (E)  Total one-electron terms.....   -1332.90588694526
   (I)  Total two-electron terms.....     500.29166767151
   (J)    Coulomb....................     560.48336269021
   (K)    Exchange+Correlation.......     -60.19169501869
   (L)  Electronic energy............    -832.61421927375  (E+I)
   (N)  Total energy.................    -527.01569378718  (A+L)
   (O)  Gas phase energy.............    -527.01569378718
  
 SCFE: SCF energy: DFT(b3lyp)      -527.01569378718 hartrees   iterations:   9
  
 
 HOMO energy:    -0.27424
 LUMO energy:    -0.12500
 
  Orbital energies (hartrees): 
   -19.30664   -19.30621   -19.29948   -19.29773   -19.29682   -19.24480
   -19.24450    -1.20908    -1.17542    -1.11160    -1.04234    -0.95672
    -0.86785    -0.81890    -0.56948    -0.55317    -0.54371    -0.51039
    -0.49679    -0.47227    -0.45625    -0.43690    -0.41139    -0.40192
    -0.39686    -0.35741    -0.31314    -0.29278    -0.27424    -0.12500
    -0.07927    -0.07398    -0.06825    -0.04824    -0.04701     0.05084
     0.05226     0.72824     0.73113
 
  Peak memory usage:    993 Mb
  
  end of program scf
   
 Time(scf)  user:        1.1  user+sys:        1.1  wallclock:        1.1
  
  start of program der1a
  
  Peak memory usage:    873 Mb
  
  end of program der1a
   
 Time(der1a)  user:        0.1  user+sys:        0.1  wallclock:        0.2
  
  start of program rwr
  
[...]
    -0.36446    -0.35430    -0.35180    -0.33948    -0.33137    -0.11369
    -0.08662    -0.07363    -0.05799    -0.02623     0.00082     0.05027
     0.05389     0.68435     0.71095
 
  Peak memory usage:    998 Mb
  
  end of program scf
   
 Time(scf)  user:        1.0  user+sys:        1.0  wallclock:        1.0
  
  start of program der1a
  
  Peak memory usage:    873 Mb
  
  end of program der1a
   
 Time(der1a)  user:        0.1  user+sys:        0.1  wallclock:        0.2
  
  start of program rwr
  
  Peak memory usage:    704 Mb
  
  end of program rwr
   
 Time(rwr)  user:        0.2  user+sys:        0.2  wallclock:        0.2
  
  start of program der1b
  
   
  forces (hartrees/bohr) : total     
   
 atom  label           x              y              z
 ---- --------   -------------  -------------  -------------
    1 O1         -5.212301E-07   3.545649E-05   2.158365E-04
    2 O2          1.671141E-04   1.040479E-04   3.424897E-05
    3 O3          1.616720E-05  -6.849817E-05   6.567080E-05
    4 O4         -1.615060E-06  -8.640347E-05   1.608975E-05
    5 O5         -5.676542E-05   1.265397E-04   1.939586E-04
    6 O6         -5.698879E-05   1.323207E-04   2.968005E-05
    7 H7         -7.082260E-07  -5.389140E-05   1.883834E-04
    8 O8         -1.404066E-04   9.704580E-05   8.273478E-05
    9 H9         -1.438611E-05   1.413748E-04   4.981711E-05
 -------------   -------------  -------------  -------------
     total       -8.811012E-05   4.279923E-04   8.764200E-04
   
  Peak memory usage:    986 Mb
  
  end of program der1b
   
 Time(der1b)  user:        0.5  user+sys:        0.5  wallclock:        0.5
  
  start of program geopt
  
 ----------------------------------------------------------------------------
  Geometry optimization step 40
  Total energy:      -527.08285653697 hartrees
 ----------------------------------------------------------------------------
  
  energy change:          -6.1906E-05 .  (  5.0000E-05 )
  gradient maximum:        1.3113E-04 *  (  4.5000E-04 )
  gradient rms:            6.9008E-05 *  (  3.0000E-04 )
  displacement maximum:    7.1238E-03 .  (  1.8000E-03 )
  displacement rms:        2.7327E-03 .  (  1.2000E-03 )
  
  predicted energy change:  -1.2951E-06
  step size:     0.01252
  trust radius:  0.03750
  
  molecular structure not yet converged...
  
  center of mass moved by:
     x:    -1.6359E-04     y:    -1.0960E-03     z:    -3.5387E-03
  
  new geometry: 
                                   angstroms
  atom               x                 y                 z
  O1           -2.1126869171     -1.1446993522      1.3258925411 
  O2           -0.7425868294     -1.3846407349      0.7999697846 
  O3           -3.0441609625     -2.0672190199      0.6285814987 
  O4           -0.6105251923     -0.6752645911     -0.5164012568 
  O5           -0.5256488451      0.8032734050     -0.2691923977 
  O6            0.8105658053      1.1060775142      0.3071716661 
  H7           -3.3489470956     -1.5071695463     -0.1296914542 
  O8            1.7963596330      1.1380750016     -0.8030307196 
  H9            2.1283455050      0.2046089733     -0.8009963135 
   
  nuclear repulsion energy.......     321.164735239 hartrees
  -------------------------------------------------
 /  end of geometry optimization iteration  40   /
 -------------------------------------------------
   
  Peak memory usage:    686 Mb
  
  end of program geopt
   
 Time(geopt)  user:        0.1  user+sys:        0.1  wallclock:        0.1
  
  start of program onee
  
  smallest eigenvalue of S:    3.434E-02
  number of canonical orbitals.....           67
  Peak memory usage:    883 Mb
  
  end of program onee
   
 Time(onee)  user:        0.1  user+sys:        0.1  wallclock:        0.1
  
  start of program probe
  
  Peak memory usage:    823 Mb
  
  end of program probe
   
 Time(probe)  user:        0.1  user+sys:        0.1  wallclock:        0.0
  
  start of program grid
  
   grid     grid set  grid #  grid sym
  ------    --------  ------  --------
  coarse        0        0        1
  medium        2        1        1
  fine          0        0        1
  ultrafine     4        2        1
  charge        0        0        1
  gradient      4        2        1
  density       0        0        1
  DFT-fine    -11        3        1
  DFT-med.    -10        4        1
  DFT-grad    -12        5        1
  DFT-der2      0        0        1
  DFT-cphf      0        0        1
  LMP2-enrg     4        2        1
  LMP2-grad     2        1        1
  DFT-cphf2     0        0        1
  PBF-dens      0        0        1
  plotting      0        0        1
  Rel-grad    -17        0        1
  
  number of gridpoints: 
     atom        O1       O2       O3       O4       O5       O6       H7
  grid # 1      122      121      115      123      121      122      114
  grid # 2      484      486      453      475      483      484      451
  grid # 3     4304     4304     4304     4304     4304     4304     4304
  grid # 4     1192     1192     1192     1192     1192     1192     1192
  grid # 5     5226     5226     5226     5226     5226     5226     5226
   
  number of gridpoints: 
     atom        O8       H9    total
  grid # 1      115      114     1067
  grid # 2      453      451     4220
  grid # 3     4304     4304    38736
  grid # 4     1192     1192    10728
  grid # 5     5226     5226    47034
   
  Peak memory usage:    814 Mb
  
  end of program grid
   
 Time(grid)  user:        0.2  user+sys:        0.2  wallclock:        0.2
  
  start of program rwr
  
  Peak memory usage:    704 Mb
  
  end of program rwr
   
 Time(rwr)  user:        0.3  user+sys:        0.3  wallclock:        0.2
  
  start of program scf
  
 Energy computed with NOPS off.
  
       i  u  d  i  g                   
       t  p  i  c  r                                 RMS    maximum
       e  d  i  u  i                       energy  density   DIIS  
       r  t  s  t  d       total energy    change  change    error 
  
etot    1  N  N  2  U    -527.08278629627           1.4E-04  7.5E-04
etot    2  Y  Y  6  M    -527.08283448353  4.8E-05  4.1E-05  1.4E-04
etot    3  N  Y  2  U    -527.08283154384 -2.9E-06  2.8E-05  3.5E-04
etot    4  N  Y  2  U    -527.08283722370  5.7E-06  4.8E-06  3.0E-05
etot    5  N  N  2  U    -527.08283720219 -2.2E-08  0.0E+00  0.0E+00
  
  
 Energy components, in hartrees:
   (A)  Nuclear repulsion............     321.16473523931
   (E)  Total one-electron terms.....   -1363.25902431924
   (I)  Total two-electron terms.....     515.01145187774
   (J)    Coulomb....................     575.22447581559
   (K)    Exchange+Correlation.......     -60.21302393785
   (L)  Electronic energy............    -848.24757244150  (E+I)
   (N)  Total energy.................    -527.08283720219  (A+L)
   (O)  Gas phase energy.............    -527.08283720219
  
 SCFE: SCF energy: DFT(b3lyp)      -527.08283720219 hartrees   iterations:   5
  
 
 HOMO energy:    -0.33114
 LUMO energy:    -0.11359
 
  Orbital energies (hartrees): 
   -19.31760   -19.31576   -19.31551   -19.31363   -19.31359   -19.25207
   -19.25199    -1.23840    -1.19904    -1.13535    -1.06093    -0.97915
    -0.89012    -0.81287    -0.60680    -0.56895    -0.55112    -0.53296
    -0.52100    -0.48425    -0.47725    -0.45398    -0.39311    -0.38793
    -0.36427    -0.35416    -0.35204    -0.33959    -0.33114    -0.11359
    -0.08671    -0.07380    -0.05807    -0.02625     0.00090     0.05026
     0.05388     0.68423     0.71076
 
  Peak memory usage:    998 Mb
  
  end of program scf
   
 Time(scf)  user:        0.9  user+sys:        0.9  wallclock:        0.9
  
  start of program der1a
  
  Peak memory usage:    873 Mb
  
  end of program der1a
   
 Time(der1a)  user:        0.1  user+sys:        0.1  wallclock:        0.2
  
  start of program rwr
  
  Peak memory usage:    704 Mb
  
  end of program rwr
   
 Time(rwr)  user:        0.2  user+sys:        0.2  wallclock:        0.2
  
  start of program der1b
  
   
  forces (hartrees/bohr) : total     
   
 atom  label           x              y              z
 ---- --------   -------------  -------------  -------------
    1 O1          1.335366E-04  -2.266114E-05   9.021916E-05
    2 O2         -1.016008E-04   7.451716E-05   1.341732E-04
    3 O3          1.544859E-04  -6.525808E-05   1.480440E-04
    4 O4         -1.429005E-05   2.495245E-05   1.156453E-04
    5 O5          1.928582E-05   2.675609E-05   1.055369E-04
    6 O6         -1.150662E-04   1.384021E-04   6.028506E-05
    7 H7          1.438062E-05  -2.565831E-05   1.345669E-04
    8 O8         -5.208067E-05   1.211284E-04   7.849474E-05
    9 H9         -5.419745E-05   1.549039E-04  -2.066924E-07
 -------------   -------------  -------------  -------------
     total       -1.554628E-05   4.270825E-04   8.667587E-04
   
  Peak memory usage:    986 Mb
  
  end of program der1b
   
 Time(der1b)  user:        0.5  user+sys:        0.5  wallclock:        0.5
  
  start of program geopt
  
 ----------------------------------------------------------------------------
  Geometry optimization step 41
  Total energy:      -527.08283720219 hartrees
 ----------------------------------------------------------------------------
  
  energy change:           1.9335E-05 *  (  5.0000E-05 )
  gradient maximum:        1.4751E-04 *  (  4.5000E-04 )
  gradient rms:            5.4051E-05 #  (  3.0000E-04 )
  displacement maximum:    4.3762E-03 .  (  1.8000E-03 )
  displacement rms:        1.3719E-03 .  (  1.2000E-03 )
  
  predicted energy change:  -4.2484E-07
  step size:     0.00629
  trust radius:  0.03750
  
  molecular structure not yet converged...
  
  center of mass moved by:
     x:     5.9628E-04     y:    -9.1993E-05     z:     9.0396E-04
  
  new geometry: 
                                   angstroms
  atom               x                 y                 z
  O1           -2.1142650928     -1.1441623856      1.3251487808 
  O2           -0.7435551852     -1.3839529383      0.8019373261 
  O3           -3.0437587914     -2.0677514980      0.6265317822 
  O4           -0.6095763594     -0.6762546600     -0.5151082159 
  O5           -0.5249199510      0.8026249378     -0.2693511529 
  O6            0.8109066693      1.1058833816      0.3071888565 
  H7           -3.3500379145     -1.5070057351     -0.1306593531 
  O8            1.7966763727      1.1391859307     -0.8030667556 
  H9            2.1264054844      0.2049126254     -0.8046230653 
   
  nuclear repulsion energy.......     321.170701435 hartrees
  -------------------------------------------------
 /  end of geometry optimization iteration  41   /
 -------------------------------------------------
   
  Peak memory usage:    686 Mb
  
  end of program geopt
   
 Time(geopt)  user:        0.1  user+sys:        0.1  wallclock:        0.1
  
  start of program onee
  
  smallest eigenvalue of S:    3.433E-02
  number of canonical orbitals.....           67
  Peak memory usage:    883 Mb
  
  end of program onee
   
 Time(onee)  user:        0.1  user+sys:        0.1  wallclock:        0.1
  
  start of program probe
  
  Peak memory usage:    823 Mb
  
  end of program probe
   
 Time(probe)  user:        0.1  user+sys:        0.1  wallclock:        0.0
  
  start of program grid
  
   grid     grid set  grid #  grid sym
  ------    --------  ------  --------
  coarse        0        0        1
  medium        2        1        1
  fine          0        0        1
  ultrafine     4        2        1
  charge        0        0        1
  gradient      4        2        1
  density       0        0        1
  DFT-fine    -11        3        1
  DFT-med.    -10        4        1
  DFT-grad    -12        5        1
  DFT-der2      0        0        1
  DFT-cphf      0        0        1
  LMP2-enrg     4        2        1
  LMP2-grad     2        1        1
  DFT-cphf2     0        0        1
  PBF-dens      0        0        1
  plotting      0        0        1
  Rel-grad    -17        0        1
  
  number of gridpoints: 
     atom        O1       O2       O3       O4       O5       O6       H7
  grid # 1      122      121      115      123      121      122      114
  grid # 2      484      483      453      475      483      484      451
  grid # 3     4304     4304     4304     4304     4304     4304     4304
  grid # 4     1192     1192     1192     1192     1192     1192     1192
  grid # 5     5226     5226     5226     5226     5226     5226     5226
   
  number of gridpoints: 
     atom        O8       H9    total
  grid # 1      115      114     1067
  grid # 2      453      451     4217
  grid # 3     4304     4304    38736
  grid # 4     1192     1192    10728
  grid # 5     5226     5226    47034
   
  Peak memory usage:    814 Mb
  
  end of program grid
   
 Time(grid)  user:        0.2  user+sys:        0.2  wallclock:        0.2
  
  start of program rwr
  
  Peak memory usage:    704 Mb
  
  end of program rwr
   
 Time(rwr)  user:        0.3  user+sys:        0.3  wallclock:        0.2
  
  start of program scf
  
 Energy computed with NOPS off.
  
       i  u  d  i  g                   
       t  p  i  c  r                                 RMS    maximum
       e  d  i  u  i                       energy  density   DIIS  
       r  t  s  t  d       total energy    change  change    error 
  
etot    1  N  N  2  U    -527.08283601422           5.4E-05  3.3E-04
etot    2  Y  Y  6  M    -527.08284311909  7.1E-06  2.3E-05  9.7E-05
etot    3  N  Y  2  U    -527.08284150569 -1.6E-06  1.5E-05  2.0E-04
etot    4  N  Y  2  U    -527.08284318543  1.7E-06  2.8E-06  2.0E-05
etot    5  N  N  2  U    -527.08284320121  1.6E-08  0.0E+00  0.0E+00
  
  
 Energy components, in hartrees:
   (A)  Nuclear repulsion............     321.17070143460
   (E)  Total one-electron terms.....   -1363.26997017428
   (I)  Total two-electron terms.....     515.01642553848
   (J)    Coulomb....................     575.22971495057
   (K)    Exchange+Correlation.......     -60.21328941210
   (L)  Electronic energy............    -848.25354463580  (E+I)
   (N)  Total energy.................    -527.08284320121  (A+L)
   (O)  Gas phase energy.............    -527.08284320121
  
 SCFE: SCF energy: DFT(b3lyp)      -527.08284320121 hartrees   iterations:   5
  
 
 HOMO energy:    -0.33117
 LUMO energy:    -0.11362
 
  Orbital energies (hartrees): 
   -19.31761   -19.31588   -19.31583   -19.31360   -19.31349   -19.25188
   -19.25185    -1.23852    -1.19913    -1.13530    -1.06096    -0.97920
    -0.89010    -0.81288    -0.60684    -0.56895    -0.55118    -0.53306
    -0.52102    -0.48427    -0.47723    -0.45396    -0.39310    -0.38796
    -0.36434    -0.35414    -0.35199    -0.33957    -0.33117    -0.11362
    -0.08664    -0.07374    -0.05808    -0.02621     0.00088     0.05028
     0.05390     0.68423     0.71077
 
  Peak memory usage:    998 Mb
  
  end of program scf
   
 Time(scf)  user:        0.9  user+sys:        0.9  wallclock:        0.9
  
  start of program der1a
  
  Peak memory usage:    873 Mb
  
  end of program der1a
   
 Time(der1a)  user:        0.1  user+sys:        0.1  wallclock:        0.2
  
  start of program rwr
  
  Peak memory usage:    704 Mb
  
  end of program rwr
   
 Time(rwr)  user:        0.2  user+sys:        0.2  wallclock:        0.2
  
  start of program der1b
  
   
  forces (hartrees/bohr) : total     
   
 atom  label           x              y              z
 ---- --------   -------------  -------------  -------------
    1 O1          1.042851E-04  -2.375825E-05   1.169154E-04
    2 O2          8.462784E-06   4.551416E-05   1.211311E-04
    3 O3          4.452709E-05  -5.471363E-05   1.444385E-04
    4 O4         -7.419657E-06   4.785453E-05   9.487478E-05
    5 O5         -6.447613E-05   6.984694E-05   8.526288E-05
    6 O6         -6.093412E-05   1.050520E-04   6.363918E-05
    7 H7          4.684724E-05  -5.396368E-05   1.474257E-04
    8 O8         -5.261416E-05   1.330515E-04   4.789028E-05
    9 H9         -3.429876E-05   1.551387E-04   4.773894E-05
 -------------   -------------  -------------  -------------
     total       -1.562060E-05   4.240222E-04   8.693167E-04
   
  Peak memory usage:    986 Mb
  
  end of program der1b
   
 Time(der1b)  user:        0.5  user+sys:        0.5  wallclock:        0.5
  
  start of program geopt
  
 ----------------------------------------------------------------------------
  Geometry optimization step 42
  Total energy:      -527.08284320121 hartrees
 ----------------------------------------------------------------------------
  
  energy change:          -5.9990E-06 *  (  5.0000E-05 )
  gradient maximum:        6.1276E-05 #  (  4.5000E-04 )
  gradient rms:            2.5551E-05 #  (  3.0000E-04 )
  displacement maximum:    1.6436E-03 *  (  1.8000E-03 )
  displacement rms:        7.1868E-04 *  (  1.2000E-03 )
  
  predicted energy change:  -6.1825E-08
  step size:     0.00329
  trust radius:  0.03750
  
  ********************************************************
  **           Geometry optimization complete           **
  ********************************************************
  
  Checking the geometry optimization convergence pattern ...
  
  WARNING:
  There were 42 geometry optimization steps,
  which indicates difficult convergence and can be
  symptomatic of potential problems with the initial
  and/or the final (converged) structures.
  
  WARNING:
  The energy on the last optimization iteration,
     -527.082843201208
  is higher than the energy on one of the previous iterations,
     -527.082897276010
  The difference between these two energies is 0.034 kcal/mole.
  This situation is symptomatic of potential problems with the
  initial and/or the converged structures.
  
  best                    worst
  ==0=====1=====2=====3=====4==
                      ^        
  
  Convergence category 3: convergence to a non-optimal structure.
  The difference between the final and the minimal
  energies is less than 0.100 kcal/mole.
  Geometry optimization was sub-optimal. Use results with caution.
  Consider reoptimizing the geometry if better convergence is required.
  
  Number of imaginary frequencies:   0
  
  center of mass moved by:
     x:     0.0000E+00     y:     0.0000E+00     z:     0.0000E+00
  
  final geometry: 
                                   angstroms
  atom               x                 y                 z
  O1           -2.1142650928     -1.1441623856      1.3251487808 
  O2           -0.7435551852     -1.3839529383      0.8019373261 
  O3           -3.0437587914     -2.0677514980      0.6265317822 
  O4           -0.6095763594     -0.6762546600     -0.5151082159 
  O5           -0.5249199510      0.8026249378     -0.2693511529 
  O6            0.8109066693      1.1058833816      0.3071888565 
  H7           -3.3500379145     -1.5070057351     -0.1306593531 
  O8            1.7966763727      1.1391859307     -0.8030667556 
  H9            2.1264054844      0.2049126254     -0.8046230653 
   
  principal moments of inertia:
        amu*angstrom^2:       57.36726      467.79679      470.19775
                g*cm^2: 9.52605622E-39 7.76794742E-38 7.80781628E-38
   
  rotational constants:
               cm^(-1):      0.29385454      0.03603622      0.03585221
                   GHz:      8.80953735      1.08033878      1.07482227
   
  nuclear repulsion energy.......     321.170701435 hartrees
  -------------------------------------------------
 /  end of geometry optimization iteration  42   /
 -------------------------------------------------
   
  Peak memory usage:    722 Mb
  
  end of program geopt
   
 Time(geopt)  user:        0.2  user+sys:        0.2  wallclock:        0.2

 Total cpu seconds     user:      82.201   user+sys:      82.201
  
 Total elapsed time:    144 seconds

Job jag_Structure1_opt_B3LYP_6-31G completed on arch_jkgroup_0 at Tue Dec 12 17:05:46 2017
